polar                                                                   
SP        RMP2-FC                                                     Gen                 
Number of atoms                            I                7
Info1-9                                    I   N=           9
          98          97           0           0           0         110
           1           2           1
Charge                                     I               -1
Multiplicity                               I                1
Number of electrons                        I               32
Number of alpha electrons                  I               16
Number of beta electrons                   I               16
Number of basis functions                  I              123
Number of independent functions            I              123
Number of point charges in /Mol/           I                0
Number of translation vectors              I                0
Atomic numbers                             I   N=           7
           6           6           1           1           1           8
           8
Nuclear charges                            R   N=           7
  6.00000000E+00  6.00000000E+00  1.00000000E+00  1.00000000E+00  1.00000000E+00
  8.00000000E+00  8.00000000E+00
Current cartesian coordinates              R   N=          21
 -2.54428286E+00 -1.13586773E-01  2.85538053E-04  3.81933111E-01  3.90875389E-03
 -2.34836320E-03 -3.21788690E+00 -2.06804530E+00  1.16054731E-03 -3.27268314E+00
  8.76401845E-01 -1.66675025E+00 -3.26976620E+00  8.76884631E-01  1.66831300E+00
  1.53794963E+00 -2.09888477E+00  6.06601768E-04  1.30385471E+00  2.22048813E+00
  6.00104543E-04
Force Field                                I                0
Int Atom Types                             I   N=           7
           0           0           0           0           0           0
           0
MM charges                                 R   N=           7
  0.00000000E+00  0.00000000E+00  0.00000000E+00  0.00000000E+00  0.00000000E+00
  0.00000000E+00  0.00000000E+00
Integer atomic weights                     I   N=           7
          12          12           1           1           1          16
          16
Real atomic weights                        R   N=           7
  1.20000000E+01  1.20000000E+01  1.00782504E+00  1.00782504E+00  1.00782504E+00
  1.59949146E+01  1.59949146E+01
Atom fragment info                         I   N=           7
           0           0           0           0           0           0
           0
Atom residue num                           I   N=           7
           0           0           0           0           0           0
           0
Nuclear spins                              I   N=           7
           0           0           1           1           1           0
           0
Nuclear ZEff                               R   N=           7
 -3.60000000E+00 -3.60000000E+00 -1.00000000E+00 -1.00000000E+00 -1.00000000E+00
 -5.60000000E+00 -5.60000000E+00
Nuclear ZNuc                               R   N=           7
  6.00000000E+00  6.00000000E+00  1.00000000E+00  1.00000000E+00  1.00000000E+00
  8.00000000E+00  8.00000000E+00
Nuclear QMom                               R   N=           7
  0.00000000E+00  0.00000000E+00  0.00000000E+00  0.00000000E+00  0.00000000E+00
  0.00000000E+00  0.00000000E+00
Nuclear GFac                               R   N=           7
  0.00000000E+00  0.00000000E+00  2.79284600E+00  2.79284600E+00  2.79284600E+00
  0.00000000E+00  0.00000000E+00
MicOpt                                     I   N=           7
          -1          -1          -1          -1          -1          -1
          -1
Number of contracted shells                I               55
Number of primitive shells                 I              110
Pure/Cartesian d shells                    I                0
Pure/Cartesian f shells                    I                0
Highest angular momentum                   I                2
Largest degree of contraction              I                5
Shell types                                I   N=          55
           0           0           0           0           0           1
           1           1          -2          -2           0           0
           0           0           0           1           1           1
          -2          -2           0           0           0           1
           1           0           0           0           1           1
           0           0           0           1           1           0
           0           0           0           0           1           1
           1          -2          -2           0           0           0
           0           0           1           1           1          -2
          -2
Number of primitives per shell             I   N=          55
           5           2           1           1           1           4
           1           1           2           2           5           2
           1           1           1           4           1           1
           2           2           4           1           1           2
           2           4           1           1           2           2
           4           1           1           2           2           5
           2           1           1           1           4           1
           1           2           2           5           2           1
           1           1           4           1           1           2
           2
Shell to atom map                          I   N=          55
           1           1           1           1           1           1
           1           1           1           1           2           2
           2           2           2           2           2           2
           2           2           3           3           3           3
           3           4           4           4           4           4
           5           5           5           5           5           6
           6           6           6           6           6           6
           6           6           6           7           7           7
           7           7           7           7           7           7
           7
Primitive exponents                        R   N=         110
  5.24063530E+03  7.82204800E+02  1.78350830E+02  5.08159420E+01  1.68235620E+01
  6.17577600E+00  2.41804900E+00  5.11900000E-01  1.56590000E-01  4.79000000E-02
  1.88418000E+01  4.15924000E+00  1.20671000E+00  3.85540000E-01  1.21940000E-01
  3.85680000E-02  1.20670000E+00  3.85500000E-01  1.21900000E-01  3.86000000E-02
  5.24063530E+03  7.82204800E+02  1.78350830E+02  5.08159420E+01  1.68235620E+01
  6.17577600E+00  2.41804900E+00  5.11900000E-01  1.56590000E-01  4.79000000E-02
  1.88418000E+01  4.15924000E+00  1.20671000E+00  3.85540000E-01  1.21940000E-01
  3.85680000E-02  1.20670000E+00  3.85500000E-01  1.21900000E-01  3.86000000E-02
  3.38650140E+01  5.09478800E+00  1.15878600E+00  3.25840000E-01  1.02741000E-01
  3.24000000E-02  1.15880000E+00  3.25800000E-01  1.02700000E-01  3.24000000E-02
  3.38650140E+01  5.09478800E+00  1.15878600E+00  3.25840000E-01  1.02741000E-01
  3.24000000E-02  1.15880000E+00  3.25800000E-01  1.02700000E-01  3.24000000E-02
  3.38650140E+01  5.09478800E+00  1.15878600E+00  3.25840000E-01  1.02741000E-01
  3.24000000E-02  1.15880000E+00  3.25800000E-01  1.02700000E-01  3.24000000E-02
  1.06622850E+04  1.59970970E+03  3.64725260E+02  1.03651790E+02  3.39058050E+01
  1.22874690E+01  4.75680500E+00  1.00427100E+00  3.00686000E-01  9.00300000E-02
  3.48564630E+01  7.84313100E+00  2.30624900E+00  7.23164000E-01  2.14882000E-01
  6.38500000E-02  2.30620000E+00  7.23200000E-01  2.14900000E-01  6.39000000E-02
  1.06622850E+04  1.59970970E+03  3.64725260E+02  1.03651790E+02  3.39058050E+01
  1.22874690E+01  4.75680500E+00  1.00427100E+00  3.00686000E-01  9.00300000E-02
  3.48564630E+01  7.84313100E+00  2.30624900E+00  7.23164000E-01  2.14882000E-01
  6.38500000E-02  2.30620000E+00  7.23200000E-01  2.14900000E-01  6.39000000E-02
Contraction coefficients                   R   N=         110
  2.06539993E-03  1.59324554E-02  8.01119476E-02  2.87877514E-01  7.03009673E-01
  6.94067370E-01  3.40077856E-01  1.00000000E+00  1.00000000E+00  1.00000000E+00
  1.80615059E-02  1.12214925E-01  3.75541979E-01  6.49536597E-01  1.00000000E+00
  1.00000000E+00  2.67978866E-01  8.19993920E-01  4.83796365E-01  6.39336711E-01
  2.06539993E-03  1.59324554E-02  8.01119476E-02  2.87877514E-01  7.03009673E-01
  6.94067370E-01  3.40077856E-01  1.00000000E+00  1.00000000E+00  1.00000000E+00
  1.80615059E-02  1.12214925E-01  3.75541979E-01  6.49536597E-01  1.00000000E+00
  1.00000000E+00  2.67978866E-01  8.19993920E-01  4.83796365E-01  6.39336711E-01
  8.76044950E-03  6.54232910E-02  2.92851374E-01  7.27211150E-01  1.00000000E+00
  1.00000000E+00  1.86447366E-01  8.73088966E-01  9.76214574E-01  3.48056130E-02
  8.76044950E-03  6.54232910E-02  2.92851374E-01  7.27211150E-01  1.00000000E+00
  1.00000000E+00  1.86447366E-01  8.73088966E-01  9.76214574E-01  3.48056130E-02
  8.76044950E-03  6.54232910E-02  2.92851374E-01  7.27211150E-01  1.00000000E+00
  1.00000000E+00  1.86447366E-01  8.73088966E-01  9.76214574E-01  3.48056130E-02
  1.90604745E-03  1.46782352E-02  7.43263084E-02  2.75759025E-01  7.19364732E-01
  6.69996511E-01  3.66229217E-01  1.00000000E+00  1.00000000E+00  1.00000000E+00
  1.99439284E-02  1.25155543E-01  3.92261182E-01  6.27670401E-01  1.00000000E+00
  1.00000000E+00  2.83613619E-01  8.10264660E-01  6.73833443E-01  4.58004278E-01
  1.90604745E-03  1.46782352E-02  7.43263084E-02  2.75759025E-01  7.19364732E-01
  6.69996511E-01  3.66229217E-01  1.00000000E+00  1.00000000E+00  1.00000000E+00
  1.99439284E-02  1.25155543E-01  3.92261182E-01  6.27670401E-01  1.00000000E+00
  1.00000000E+00  2.83613619E-01  8.10264660E-01  6.73833443E-01  4.58004278E-01
Coordinates of each shell                  R   N=         165
 -2.54428286E+00 -1.13586773E-01  2.85538053E-04 -2.54428286E+00 -1.13586773E-01
  2.85538053E-04 -2.54428286E+00 -1.13586773E-01  2.85538053E-04 -2.54428286E+00
 -1.13586773E-01  2.85538053E-04 -2.54428286E+00 -1.13586773E-01  2.85538053E-04
 -2.54428286E+00 -1.13586773E-01  2.85538053E-04 -2.54428286E+00 -1.13586773E-01
  2.85538053E-04 -2.54428286E+00 -1.13586773E-01  2.85538053E-04 -2.54428286E+00
 -1.13586773E-01  2.85538053E-04 -2.54428286E+00 -1.13586773E-01  2.85538053E-04
  3.81933111E-01  3.90875389E-03 -2.34836320E-03  3.81933111E-01  3.90875389E-03
 -2.34836320E-03  3.81933111E-01  3.90875389E-03 -2.34836320E-03  3.81933111E-01
  3.90875389E-03 -2.34836320E-03  3.81933111E-01  3.90875389E-03 -2.34836320E-03
  3.81933111E-01  3.90875389E-03 -2.34836320E-03  3.81933111E-01  3.90875389E-03
 -2.34836320E-03  3.81933111E-01  3.90875389E-03 -2.34836320E-03  3.81933111E-01
  3.90875389E-03 -2.34836320E-03  3.81933111E-01  3.90875389E-03 -2.34836320E-03
 -3.21788690E+00 -2.06804530E+00  1.16054731E-03 -3.21788690E+00 -2.06804530E+00
  1.16054731E-03 -3.21788690E+00 -2.06804530E+00  1.16054731E-03 -3.21788690E+00
 -2.06804530E+00  1.16054731E-03 -3.21788690E+00 -2.06804530E+00  1.16054731E-03
 -3.27268314E+00  8.76401845E-01 -1.66675025E+00 -3.27268314E+00  8.76401845E-01
 -1.66675025E+00 -3.27268314E+00  8.76401845E-01 -1.66675025E+00 -3.27268314E+00
  8.76401845E-01 -1.66675025E+00 -3.27268314E+00  8.76401845E-01 -1.66675025E+00
 -3.26976620E+00  8.76884631E-01  1.66831300E+00 -3.26976620E+00  8.76884631E-01
  1.66831300E+00 -3.26976620E+00  8.76884631E-01  1.66831300E+00 -3.26976620E+00
  8.76884631E-01  1.66831300E+00 -3.26976620E+00  8.76884631E-01  1.66831300E+00
  1.53794963E+00 -2.09888477E+00  6.06601768E-04  1.53794963E+00 -2.09888477E+00
  6.06601768E-04  1.53794963E+00 -2.09888477E+00  6.06601768E-04  1.53794963E+00
 -2.09888477E+00  6.06601768E-04  1.53794963E+00 -2.09888477E+00  6.06601768E-04
  1.53794963E+00 -2.09888477E+00  6.06601768E-04  1.53794963E+00 -2.09888477E+00
  6.06601768E-04  1.53794963E+00 -2.09888477E+00  6.06601768E-04  1.53794963E+00
 -2.09888477E+00  6.06601768E-04  1.53794963E+00 -2.09888477E+00  6.06601768E-04
  1.30385471E+00  2.22048813E+00  6.00104543E-04  1.30385471E+00  2.22048813E+00
  6.00104543E-04  1.30385471E+00  2.22048813E+00  6.00104543E-04  1.30385471E+00
  2.22048813E+00  6.00104543E-04  1.30385471E+00  2.22048813E+00  6.00104543E-04
  1.30385471E+00  2.22048813E+00  6.00104543E-04  1.30385471E+00  2.22048813E+00
  6.00104543E-04  1.30385471E+00  2.22048813E+00  6.00104543E-04  1.30385471E+00
  2.22048813E+00  6.00104543E-04  1.30385471E+00  2.22048813E+00  6.00104543E-04
Constraint Structure                       R   N=          21
 -2.54428286E+00 -1.13586773E-01  2.85538053E-04  3.81933111E-01  3.90875389E-03
 -2.34836320E-03 -3.21788690E+00 -2.06804530E+00  1.16054731E-03 -3.27268314E+00
  8.76401845E-01 -1.66675025E+00 -3.26976620E+00  8.76884631E-01  1.66831300E+00
  1.53794963E+00 -2.09888477E+00  6.06601768E-04  1.30385471E+00  2.22048813E+00
  6.00104543E-04
Num ILSW                                   I              100
ILSW                                       I   N=         100
           0           0           0           0           2           0
           0           0           0           0           0          -1
           0           0           0           0           0           0
           0           0           0           0           0           0
           1           0           0           0           0           0
           0           0      100000           0          -1           0
           0           0           0           0           0           0
           0           0           0           1           0           0
           0           0           1           0           0           0
           0           0           4          41           0           0
           0           0           0           0           0           0
           0           0           0           7           0           0
           0           0           0           0           0           0
           0           0           0           0           0           0
           0           0           0           0           0           0
           0           0           0           0           0           0
           0           0           0           0
Num RLSW                                   I               41
RLSW                                       R   N=          41
  1.00000000E+00  1.00000000E+00  1.00000000E+00  1.00000000E+00  1.00000000E+00
  0.00000000E+00  0.00000000E+00  1.00000000E+00  0.00000000E+00  0.00000000E+00
  0.00000000E+00  0.00000000E+00  1.00000000E+00  0.00000000E+00  0.00000000E+00
  0.00000000E+00  0.00000000E+00  1.00000000E+00  0.00000000E+00  0.00000000E+00
  0.00000000E+00  0.00000000E+00  1.00000000E+00  0.00000000E+00  0.00000000E+00
  0.00000000E+00  0.00000000E+00  1.00000000E+00  0.00000000E+00  0.00000000E+00
  0.00000000E+00  0.00000000E+00  1.00000000E+00  0.00000000E+00  0.00000000E+00
  0.00000000E+00  0.00000000E+00  0.00000000E+00  1.00000000E+00  1.00000000E+00
  0.00000000E+00
MxBond                                     I                4
NBond                                      I   N=           7
           4           3           1           1           1           1
           1
IBond                                      I   N=          28
           2           3           4           5           1           6
           7           0           1           0           0           0
           1           0           0           0           1           0
           0           0           2           0           0           0
           2           0           0           0
RBond                                      R   N=          28
  1.00000000E+00  1.00000000E+00  1.00000000E+00  1.00000000E+00  1.00000000E+00
  2.00000000E+00  2.00000000E+00  0.00000000E+00  1.00000000E+00  0.00000000E+00
  0.00000000E+00  0.00000000E+00  1.00000000E+00  0.00000000E+00  0.00000000E+00
  0.00000000E+00  1.00000000E+00  0.00000000E+00  0.00000000E+00  0.00000000E+00
  2.00000000E+00  0.00000000E+00  0.00000000E+00  0.00000000E+00  2.00000000E+00
  0.00000000E+00  0.00000000E+00  0.00000000E+00
Virial Ratio                               R      2.001917651452719E+00
SCF Energy                                 R     -2.273045742277463E+02
MP2 Energy                                 R     -2.279860411354012E+02
Total Energy                               R     -2.279860411354012E+02
Post-SCF wavefunction norm                 R      1.104607226834417E+00
RMS Density                                R      8.460008368158776E-09
External E-field                           R   N=          35
  0.00000000E+00 -8.00000000E-04  0.00000000E+00  0.00000000E+00  0.00000000E+00
  0.00000000E+00  0.00000000E+00  0.00000000E+00  0.00000000E+00  0.00000000E+00
  0.00000000E+00  0.00000000E+00  0.00000000E+00  0.00000000E+00  0.00000000E+00
  0.00000000E+00  0.00000000E+00  0.00000000E+00  0.00000000E+00  0.00000000E+00
  0.00000000E+00  0.00000000E+00  0.00000000E+00  0.00000000E+00  0.00000000E+00
  0.00000000E+00  0.00000000E+00  0.00000000E+00  0.00000000E+00  0.00000000E+00
  0.00000000E+00  0.00000000E+00  0.00000000E+00  0.00000000E+00  0.00000000E+00
IOpCl                                      I                0
IROHF                                      I                0
Alpha Orbital Energies                     R   N=         123
 -2.02899581E+01 -2.02870668E+01 -1.11409817E+01 -1.10575697E+01 -1.15304355E+00
 -1.05496288E+00 -7.94261024E-01 -5.12728635E-01 -4.16102378E-01 -4.10947636E-01
 -4.10900911E-01 -3.58458803E-01 -3.12895611E-01 -2.00999246E-01 -1.94163283E-01
 -1.86408190E-01  1.41447220E-01  1.53113740E-01  1.55063765E-01  1.94593126E-01
  2.26513281E-01  2.31465079E-01  2.36604395E-01  2.43469183E-01  2.45916556E-01
  2.85282082E-01  2.96514882E-01  3.07090326E-01  3.12880123E-01  3.58826836E-01
  3.71522054E-01  3.84438753E-01  3.93095772E-01  4.02448370E-01  4.24862804E-01
  4.38260032E-01  4.45433083E-01  4.59621385E-01  4.62582684E-01  4.65069912E-01
  4.99360638E-01  5.16953933E-01  5.36095274E-01  5.36785586E-01  5.44190957E-01
  5.44545224E-01  5.54405214E-01  5.63826680E-01  5.65464733E-01  5.80996273E-01
  5.93145243E-01  6.12604249E-01  6.41581418E-01  6.48136775E-01  6.83396802E-01
  6.94458324E-01  7.46934223E-01  7.53153988E-01  7.80462816E-01  8.46285765E-01
  8.75516263E-01  8.89666452E-01  9.14565194E-01  9.23141961E-01  9.40975908E-01
  9.56801248E-01  9.68168572E-01  9.95732163E-01  1.05628747E+00  1.07316052E+00
  1.08860285E+00  1.10533514E+00  1.13305327E+00  1.14829329E+00  1.16298796E+00
  1.16859920E+00  1.21307158E+00  1.22671970E+00  1.23900822E+00  1.28737349E+00
  1.36133767E+00  1.38788444E+00  1.38930129E+00  1.44760304E+00  1.46751094E+00
  1.58179238E+00  1.58320184E+00  1.63900939E+00  1.64270444E+00  1.73440211E+00
  1.76295920E+00  1.80746604E+00  1.82609078E+00  1.88170665E+00  1.89026648E+00
  1.96066037E+00  2.00938707E+00  2.03655456E+00  2.06173479E+00  2.25546925E+00
  2.29462289E+00  2.45258861E+00  2.47334761E+00  2.54938766E+00  2.61403068E+00
  2.74652276E+00  2.77762631E+00  2.83688504E+00  2.90314271E+00  2.90998353E+00
  2.96451612E+00  3.02385965E+00  3.12327080E+00  3.17906685E+00  3.47543601E+00
  3.51572644E+00  3.67311666E+00  3.75862143E+00  3.89511710E+00  2.29115790E+01
  2.31759806E+01  4.44652558E+01  4.45165437E+01
Alpha MO coefficients                      R   N=       15129
 -5.57357321E-06  3.46419775E-05 -1.19646116E-04  4.63434730E-04 -2.62079776E-04
 -1.52401096E-04 -2.22883377E-06  3.01803319E-07 -3.78209804E-05  1.07962290E-03
  9.86024308E-07 -9.19875457E-04 -2.09667637E-03  1.00603599E-05 -6.36892389E-05
  1.59891179E-07 -5.78571191E-07 -1.57402590E-04  1.53951157E-04  4.15857867E-04
  5.03519196E-06  2.50089017E-06  1.60423140E-04 -1.03649854E-03 -2.41389261E-05
  4.11653264E-05  2.87896026E-04  6.56066920E-03  1.12012031E-03  2.10711604E-04
 -2.41555048E-04  9.99764144E-07  3.91504804E-03 -4.76270973E-03  5.97576466E-06
  5.29238830E-04  2.79913890E-03 -1.08666280E-05  5.54659768E-05  3.52450496E-07
  9.74850747E-07  3.67887586E-04  4.61951334E-04 -1.58203563E-04  6.07682045E-06
  4.12848260E-07 -6.73972358E-04 -9.50134456E-04 -4.17102633E-05  2.04573800E-03
 -2.41195164E-05 -3.89028178E-05 -8.01275698E-05  6.06440720E-08 -3.52152838E-05
  4.98020253E-04  1.45115423E-06  2.88806605E-05 -2.41585179E-04 -3.25223923E-04
  1.16415710E-04 -5.41233929E-05  8.01959995E-06  3.55353061E-04 -1.79485565E-05
 -1.40723193E-04  2.99113770E-05 -2.49897117E-04 -3.23094143E-04  1.15389124E-04
 -5.41352747E-05 -7.97375461E-06  3.51678025E-04 -1.79549739E-05  1.42847436E-04
  4.19173344E-01  6.63530504E-01  1.52429089E-02 -6.22637837E-03 -5.91520476E-03
 -7.32179019E-04  1.32764348E-03 -2.62502344E-06  1.51821119E-03 -3.10678023E-03
  5.02031130E-06  6.26462379E-04 -1.78239350E-03  2.44585345E-06 -1.20099378E-04
  1.68847692E-07 -1.04738934E-08 -1.63092085E-05 -4.00248397E-05  4.72001518E-04
 -1.53017754E-06  2.04201987E-06  6.16064133E-04  7.40219017E-04 -2.53318398E-03
 -3.99812547E-03 -1.18436446E-04 -1.21274321E-04  1.83768899E-03  3.33369531E-05
  6.77578261E-05  2.73346854E-07 -8.21960779E-04  6.15972305E-04 -2.69486113E-06
 -8.21785353E-04 -6.15755317E-04 -2.40977051E-06 -6.65300533E-06  3.50310092E-07
 -1.07586309E-07  8.41872558E-05  5.74302574E-05  1.18340280E-05  1.14470990E-06
  1.54926988E-06  6.43914383E-04  2.81406714E-04 -6.72292071E-06  4.06552925E-05
 -1.98583021E-04  6.21893223E-04  3.76255966E-04 -1.73504400E-04 -4.14022576E-05
  3.20349471E-07  1.17709758E-03 -1.56472790E-03 -9.41451976E-06  2.33859171E-05
  1.47520287E-04  1.55543245E-05 -8.21166509E-07  2.04522687E-07  6.92582103E-07
 -1.28157277E-04 -1.07822960E-04  3.86116304E-04  5.98570340E-06 -3.88548593E-07
  3.91935319E-04 -2.29298529E-04 -2.45571410E-05  4.23655741E-05  3.34211870E-04
  4.93448597E-03 -6.01971158E-04  1.97508082E-04  2.66622644E-04  1.04064238E-06
  3.50801820E-03  5.68634364E-03  4.79496709E-06  5.17647102E-04 -3.67884232E-04
 -1.42141305E-05  9.00306196E-05  2.25855328E-07 -9.62072101E-07  4.71955983E-04
 -3.75138747E-04 -2.25875517E-04  7.81504322E-06  2.26363779E-06 -4.36266710E-04
 -2.40579680E-04 -6.61136386E-05 -5.11682575E-05  5.63874440E-04  5.12977239E-05
  2.79569426E-05  8.17717634E-07 -1.27084632E-04  1.15415008E-04 -4.92729848E-07
 -5.49942464E-06  9.70950078E-04 -2.44230285E-04 -9.77031471E-05  1.93952884E-05
  2.27159929E-05  1.94917359E-04  1.47965665E-04  3.50780987E-04 -5.29979384E-06
  1.00455984E-03 -2.45060930E-04 -9.78407283E-05  1.85329714E-05 -2.22255399E-05
  1.96155841E-04  1.42820365E-04 -3.62272551E-04  2.53338275E-03  4.02252264E-03
  5.55703322E-05 -9.45157753E-05  2.23470520E-03  3.87786773E-05 -4.82717057E-05
  2.24406961E-07 -9.26421259E-04 -5.93378517E-04 -2.56909171E-06 -1.19264269E-03
  4.76853159E-04 -2.48219739E-06 -1.32891142E-05  2.67813297E-07  1.57743767E-07
  8.93228587E-05 -3.40416826E-05  1.44226528E-05  1.73555429E-06 -1.54356713E-06
  6.68194876E-04 -2.57021687E-04  4.19171854E-01  6.63536536E-01  1.51878224E-02
 -5.91538378E-03 -5.62416593E-03 -6.04513894E-04 -1.40112048E-03 -2.60585784E-06
  1.20295444E-03  3.08736502E-03  4.32245949E-06  6.72547727E-04  1.73620506E-03
  6.32633520E-07 -1.11140218E-04  1.92695765E-07  5.32433098E-09 -1.93245714E-05
  4.50406876E-05  4.54535691E-04 -1.34184093E-06 -1.84761976E-06  6.49311605E-04
 -5.99493954E-04  1.44560846E-03  1.98897545E-03  3.23443214E-04 -7.43524013E-04
  3.02577354E-03  2.58621832E-04 -1.05959452E-06 -3.02377486E-07  1.49719412E-03
 -8.45637205E-04  5.81848766E-06  2.46414491E-04  1.03912102E-04 -2.13387605E-05
  5.29105905E-05  3.03792103E-07  1.25629573E-07  3.93217374E-05  1.31155403E-05
 -6.16225551E-04 -8.35372700E-06 -2.47501029E-06  2.19804952E-05 -1.03894644E-04
  4.53535920E-01  6.31406306E-01  1.18822328E-02 -1.83930263E-03 -5.89778650E-03
  5.14701603E-05 -3.09763844E-06 -9.60642710E-07  1.52881690E-03  1.20587853E-04
 -4.85201336E-06  3.92814200E-04  6.90708323E-05  1.61477165E-05 -5.01099567E-04
  1.77325501E-07  2.93663398E-08 -3.45870204E-04 -7.15124609E-05  1.11907755E-03
 -7.68666510E-06  5.64799147E-07 -1.71869624E-04 -1.43666544E-04  4.34819234E-05
 -6.10788677E-04  9.51190370E-05  1.59972702E-05  4.34312876E-05 -6.41990663E-07
  1.30064983E-04 -1.42138573E-04 -1.37277676E-06  1.48009150E-05  2.37823117E-03
 -6.40283426E-05  3.77116582E-05  1.32969910E-05  1.15458509E-04  6.96273041E-04
 -5.42367272E-04  4.11331131E-04  1.44581088E-05  2.35027126E-03 -5.71800465E-05
  3.78229118E-05  1.38197935E-05 -1.15596673E-04  6.93133052E-04 -5.36460367E-04
 -4.02764655E-04 -1.08180249E-04 -2.78947770E-04  4.35573854E-04 -3.49898861E-04
  9.13990865E-04 -2.29736998E-04  4.92203738E-04 -7.41055990E-07  3.04446405E-04
 -5.80319645E-04  3.86636307E-06  4.33184149E-04 -5.60404779E-04  6.46234345E-07
 -8.38113443E-05 -5.84930370E-08 -2.40054419E-07 -1.82515226E-04 -1.79054296E-04
  4.05200192E-04 -9.88723164E-07  3.26201113E-06  2.92041340E-04  5.65325682E-04
 -1.07985896E-04 -2.74282034E-04  4.01244728E-04 -1.93779637E-04  7.86529815E-04
 -1.81181807E-04 -5.24036100E-04 -7.80937589E-07  2.63524893E-04  5.71600291E-04
  3.65571027E-06  7.65742123E-04  5.76010332E-04  5.45560571E-07 -8.86424765E-05
  1.41985870E-08  2.81957492E-07 -2.10431942E-04  1.39211618E-04  3.96682732E-04
 -1.21492074E-06 -3.35289236E-06  3.10550326E-04 -5.36755900E-04  4.53353424E-01
  6.31154392E-01  1.37635434E-02 -1.29529718E-02 -1.12570117E-02 -4.41740556E-04
  1.12362717E-04 -1.49924306E-08 -1.16927212E-04 -6.71875289E-05 -2.40342175E-07
 -8.59963573E-04 -6.29778827E-04 -1.93342516E-06  5.52099106E-05  3.69978450E-07
 -2.04699624E-08 -6.79123548E-05 -3.24833994E-05  9.34375087E-05 -8.89116477E-07
  1.00510972E-07 -2.52033008E-04 -2.23589994E-04 -1.53018248E-03 -2.15445372E-03
  7.67635384E-05  3.65688106E-03  7.01348511E-03 -3.54540391E-04 -2.38693750E-05
  3.02533547E-07 -1.41348199E-03 -7.33468290E-05  3.97973030E-06 -1.86657504E-03
  6.31351468E-04  4.24180528E-06 -1.15260896E-04  8.61086100E-08  2.44542729E-10
  9.89404919E-05  2.23213709E-05 -1.57219659E-04 -2.41470877E-06  2.18033525E-07
  7.58640747E-04 -2.39250793E-04  6.59176559E-04  3.87342597E-03  5.81201347E-04
  3.92773500E-05  2.45619079E-05 -1.08569276E-08  3.20807161E-04  1.26039877E-03
 -4.55041737E-07  5.94869861E-04  3.27786246E-03  5.64157606E-04  1.97535509E-05
  2.84327793E-05 -6.50412726E-05  2.88298357E-04 -5.26682934E-04  8.87233896E-04
  5.95297566E-04  3.27518238E-03  5.63533204E-04  1.99463306E-05  2.82890456E-05
  6.47730066E-05  2.86520013E-04 -5.26408158E-04 -8.86439968E-04  3.17642377E-06
  6.19741595E-06  1.21656615E-05 -2.22656121E-04 -9.77619109E-04  3.01656253E-05
 -1.18672742E-05  6.62143240E-08  2.14791456E-04 -3.14429980E-04  2.60235917E-07
  9.36425543E-05 -6.42606518E-04  3.69771327E-07 -3.56327645E-06 -8.60724710E-08
  1.31011092E-08  1.07965449E-05 -3.79559538E-06  7.86173612E-05  1.39838583E-07
  3.60435399E-07  1.25073272E-04  1.42306984E-04  2.97739470E-06  8.99210281E-06
 -1.09164865E-05 -1.44194888E-04 -6.10074422E-04  3.10023124E-05  1.69431980E-05
  1.07761160E-07  1.58111799E-04  3.05946647E-04 -9.11132331E-08  9.18620671E-05
  3.33972989E-04  3.41908472E-07 -2.35384646E-06 -5.15500872E-08 -3.82912661E-08
  1.69256446E-05  6.05070917E-06  4.85516530E-05  4.46254169E-08 -2.29967350E-07
  1.61844652E-04 -9.03766314E-05 -1.07135508E-02 -2.51570704E-02  5.29321626E-02
 -5.86579040E-02 -2.08240867E-01  3.86925923E-02  2.02184334E-03 -2.21194275E-05
 -2.15692755E-02  2.05948916E-02  7.77509505E-05 -3.83618956E-02  2.04359807E-02
 -3.69176471E-04 -3.73312539E-03 -1.47761942E-05 -9.18198695E-08  1.11442711E-02
  3.25466188E-04 -2.52598936E-02 -1.67544662E-04 -3.72828410E-05 -2.07874260E-02
  2.07097385E-02 -6.01507902E-02 -1.37295528E-01  2.79430280E-01  2.48048752E-01
  2.63477151E-01  9.24689571E-02  3.24641583E-03  2.68147492E-04 -8.58872604E-02
 -1.68268773E-02 -1.46072293E-05 -1.20162034E-01 -4.11180220E-02  4.40258967E-04
 -2.45943539E-02  2.33569655E-05  7.63762487E-07 -3.27964908E-02 -3.79878853E-03
  2.36074551E-02 -2.77235833E-04 -4.17559250E-05  6.50494444E-02  2.26993828E-02
  1.70120156E-02  1.51280475E-02 -3.48304584E-02  2.12631809E-03  5.17289291E-03
 -9.72443697E-06  1.37740535E-02  7.55637922E-03 -3.25832354E-05  1.65089414E-02
  5.12193616E-03 -5.37757442E-03  9.04659415E-04 -1.98952046E-03  2.99281655E-03
 -5.13873782E-03 -3.95992833E-03 -5.75969846E-03  1.65075350E-02  4.81935708E-03
 -5.37320659E-03  9.12224013E-04 -1.97779983E-03 -3.00224404E-03 -5.10168949E-03
 -3.92169315E-03  5.89797361E-03 -5.77560567E-02 -1.47014881E-01  2.96014517E-01
  2.79991390E-01 -3.93628676E-02 -4.66451519E-02  9.46296986E-02 -8.95471564E-05
  1.35759636E-02 -1.05620397E-03  3.45908651E-05  4.55588035E-02 -5.23521220E-02
  5.26065539E-05 -7.17093077E-03  6.29635624E-06 -2.70136606E-05 -8.72898592E-03
 -1.01573231E-02  1.41753440E-02 -2.16241976E-05  6.89275326E-05 -7.16197346E-04
  1.97205397E-02 -5.67780119E-02 -1.44541723E-01  2.91145605E-01  2.73861475E-01
 -2.98763847E-02 -3.54445239E-02 -9.80073848E-02 -8.73771562E-05  9.74300290E-03
  2.31262625E-03  4.11273299E-05  3.00910779E-02  5.68855067E-02  7.42431899E-05
 -7.07473582E-03  2.40385757E-06  2.69317043E-05 -1.06817542E-02  7.88579738E-03
  1.40095551E-02 -7.71227337E-06 -7.09126851E-05  4.66793688E-03 -1.84303426E-02
 -4.81850715E-04 -1.09398404E-03  2.30435785E-03 -1.83538046E-03 -8.55510041E-03
  7.78423909E-04  1.57189528E-02 -4.45149517E-07 -9.63070602E-03  4.17324513E-03
 -7.48210759E-06  3.43821223E-03 -7.96928992E-02 -1.41688559E-04  1.16528662E-04
  4.56571891E-07 -1.31126838E-05 -2.85165670E-04  6.90595047E-03 -5.64457681E-03