 Entering Gaussian System, Link 0=g09
 Input=mx.inp
 Output=mx.log
 Initial command:
 /opt/g09/l1.exe "/scratch/data/esther/gaussian_scratch/Gau-24703.inp" -scrdir="/scratch/data/esther/gaussian_scratch/"
 Entering Link 1 = /opt/g09/l1.exe PID=     24705.
  
 Copyright (c) 1988,1990,1992,1993,1995,1998,2003,2009,2013,
            Gaussian, Inc.  All Rights Reserved.
  
 This is part of the Gaussian(R) 09 program.  It is based on
 the Gaussian(R) 03 system (copyright 2003, Gaussian, Inc.),
 the Gaussian(R) 98 system (copyright 1998, Gaussian, Inc.),
 the Gaussian(R) 94 system (copyright 1995, Gaussian, Inc.),
 the Gaussian 92(TM) system (copyright 1992, Gaussian, Inc.),
 the Gaussian 90(TM) system (copyright 1990, Gaussian, Inc.),
 the Gaussian 88(TM) system (copyright 1988, Gaussian, Inc.),
 the Gaussian 86(TM) system (copyright 1986, Carnegie Mellon
 University), and the Gaussian 82(TM) system (copyright 1983,
 Carnegie Mellon University). Gaussian is a federally registered
 trademark of Gaussian, Inc.
  
 This software contains proprietary and confidential information,
 including trade secrets, belonging to Gaussian, Inc.
  
 This software is provided under written license and may be
 used, copied, transmitted, or stored only in accord with that
 written license.
  
 The following legend is applicable only to US Government
 contracts under FAR:
  
                    RESTRICTED RIGHTS LEGEND
  
 Use, reproduction and disclosure by the US Government is
 subject to restrictions as set forth in subparagraphs (a)
 and (c) of the Commercial Computer Software - Restricted
 Rights clause in FAR 52.227-19.
  
 Gaussian, Inc.
 340 Quinnipiac St., Bldg. 40, Wallingford CT 06492
  
  
 ---------------------------------------------------------------
 Warning -- This program may not be used in any manner that
 competes with the business of Gaussian, Inc. or will provide
 assistance to any competitor of Gaussian, Inc.  The licensee
 of this program is prohibited from giving any competitor of
 Gaussian, Inc. access to this program.  By using this program,
 the user acknowledges that Gaussian, Inc. is engaged in the
 business of creating and licensing software in the field of
 computational chemistry and represents and warrants to the
 licensee that it is not a competitor of Gaussian, Inc. and that
 it will not use this program in any manner prohibited above.
 ---------------------------------------------------------------
  

 Cite this work as:
 Gaussian 09, Revision D.01,
 M. J. Frisch, G. W. Trucks, H. B. Schlegel, G. E. Scuseria, 
 M. A. Robb, J. R. Cheeseman, G. Scalmani, V. Barone, B. Mennucci, 
 G. A. Petersson, H. Nakatsuji, M. Caricato, X. Li, H. P. Hratchian, 
 A. F. Izmaylov, J. Bloino, G. Zheng, J. L. Sonnenberg, M. Hada, 
 M. Ehara, K. Toyota, R. Fukuda, J. Hasegawa, M. Ishida, T. Nakajima, 
 Y. Honda, O. Kitao, H. Nakai, T. Vreven, J. A. Montgomery, Jr., 
 J. E. Peralta, F. Ogliaro, M. Bearpark, J. J. Heyd, E. Brothers, 
 K. N. Kudin, V. N. Staroverov, T. Keith, R. Kobayashi, J. Normand, 
 K. Raghavachari, A. Rendell, J. C. Burant, S. S. Iyengar, J. Tomasi, 
 M. Cossi, N. Rega, J. M. Millam, M. Klene, J. E. Knox, J. B. Cross, 
 V. Bakken, C. Adamo, J. Jaramillo, R. Gomperts, R. E. Stratmann, 
 O. Yazyev, A. J. Austin, R. Cammi, C. Pomelli, J. W. Ochterski, 
 R. L. Martin, K. Morokuma, V. G. Zakrzewski, G. A. Voth, 
 P. Salvador, J. J. Dannenberg, S. Dapprich, A. D. Daniels, 
 O. Farkas, J. B. Foresman, J. V. Ortiz, J. Cioslowski, 
 and D. J. Fox, Gaussian, Inc., Wallingford CT, 2013.
 
 ******************************************
 Gaussian 09:  ES64L-G09RevD.01 24-Apr-2013
                15-May-2019 
 ******************************************
 %nprocshared=4
 Will use up to    4 processors via shared memory.
 %Chk=mx
 --------------------------------------------------------
 #p MP2/Gen SCF=(MAXCYCLE=1000) field=x-8 density=current
 --------------------------------------------------------
 1/30=1,38=1/1;
 2/12=2,17=6,18=5,40=1/2;
 3/5=7,11=9,14=1,15=-8,16=1,25=1,30=1,71=1/1,2,3;
 4//1;
 5/5=2,7=1000,38=5/2;
 8/6=4,10=1/1;
 9/15=1,16=-3/6;
 10/5=1,13=10/2;
 6/7=2,8=2,9=2,10=2,22=-1/1;
 99/5=1,9=1/99;
 Leave Link    1 at Wed May 15 16:45:52 2019, MaxMem=           0 cpu:         0.2
 (Enter /opt/g09/l101.exe)
 -----
 polar
 -----
 Symbolic Z-matrix:
 Charge = -1 Multiplicity = 1
 C                     0.61315   1.29682  -0.00141 
 C                    -0.0545   -0.10173  -0.00109 
 H                    -0.13523   2.09474  -0.00094 
 H                     1.25559   1.39253  -0.88421 
 H                     1.25664   1.39247   0.88063 
 O                    -1.32413  -0.12348   0.0016 
 O                     0.75524  -1.08059   0.00056 
 
 NAtoms=      7 NQM=        7 NQMF=       0 NMMI=      0 NMMIF=      0
                NMic=       0 NMicF=      0.
                    Isotopes and Nuclear Properties:
 (Nuclear quadrupole moments (NQMom) in fm**2, nuclear magnetic moments (NMagM)
  in nuclear magnetons)

  Atom         1           2           3           4           5           6           7
 IAtWgt=          12          12           1           1           1          16          16
 AtmWgt=  12.0000000  12.0000000   1.0078250   1.0078250   1.0078250  15.9949146  15.9949146
 NucSpn=           0           0           1           1           1           0           0
 AtZEff=   0.0000000   0.0000000   0.0000000   0.0000000   0.0000000   0.0000000   0.0000000
 NQMom=    0.0000000   0.0000000   0.0000000   0.0000000   0.0000000   0.0000000   0.0000000
 NMagM=    0.0000000   0.0000000   2.7928460   2.7928460   2.7928460   0.0000000   0.0000000
 AtZNuc=   6.0000000   6.0000000   1.0000000   1.0000000   1.0000000   8.0000000   8.0000000
 Leave Link  101 at Wed May 15 16:45:52 2019, MaxMem=    33554432 cpu:         0.2
 (Enter /opt/g09/l202.exe)
                          Input orientation:                          
 ---------------------------------------------------------------------
 Center     Atomic      Atomic             Coordinates (Angstroms)
 Number     Number       Type             X           Y           Z
 ---------------------------------------------------------------------
      1          6           0        0.613146    1.296818   -0.001409
      2          6           0       -0.054499   -0.101728   -0.001089
      3          1           0       -0.135232    2.094736   -0.000937
      4          1           0        1.255590    1.392531   -0.884205
      5          1           0        1.256638    1.392473    0.880634
      6          8           0       -1.324128   -0.123477    0.001602
      7          8           0        0.755237   -1.080593    0.000555
 ---------------------------------------------------------------------
                    Distance matrix (angstroms):
                    1          2          3          4          5
     1  C    0.000000
     2  C    1.549735   0.000000
     3  H    1.093958   2.197947   0.000000
     4  H    1.096004   2.174635   1.790989   0.000000
     5  H    1.096007   2.174661   1.790989   1.764840   0.000000
     6  O    2.402140   1.269818   2.516733   3.120557   3.119480
     7  O    2.381654   1.270375   3.297826   2.673855   2.672452
                    6          7
     6  O    0.000000
     7  O    2.289068   0.000000
 Stoichiometry    C2H3O2(1-)
 Framework group  C1[X(C2H3O2)]
 Deg. of freedom    15
 Full point group                 C1      NOp   1
 Largest Abelian subgroup         C1      NOp   1
 Largest concise Abelian subgroup C1      NOp   1
                         Standard orientation:                         
 ---------------------------------------------------------------------
 Center     Atomic      Atomic             Coordinates (Angstroms)
 Number     Number       Type             X           Y           Z
 ---------------------------------------------------------------------
      1          6           0       -1.346377   -0.060108    0.000151
      2          6           0        0.202110    0.002068   -0.001243
      3          1           0       -1.702832   -1.094362    0.000614
      4          1           0       -1.731829    0.463772   -0.882006
      5          1           0       -1.730286    0.464027    0.882833
      6          8           0        0.813848   -1.110682    0.000321
      7          8           0        0.689970    1.175032    0.000318
 ---------------------------------------------------------------------
 Rotational constants (GHZ):     11.2167440      9.9969936      5.4653418
 Leave Link  202 at Wed May 15 16:45:52 2019, MaxMem=    33554432 cpu:         0.0
 (Enter /opt/g09/l301.exe)
 General basis read from cards:  (5D, 7F)
 Centers:       1      2
 S 5 1.00
     Exponent=  5.2406353000D+03 Coefficients=  9.3700000000D-04
     Exponent=  7.8220480000D+02 Coefficients=  7.2280000000D-03
     Exponent=  1.7835083000D+02 Coefficients=  3.6344000000D-02
     Exponent=  5.0815942000D+01 Coefficients=  1.3060000000D-01
     Exponent=  1.6823562000D+01 Coefficients=  3.1893100000D-01
 S 2 1.00
     Exponent=  6.1757760000D+00 Coefficients=  4.3874200000D-01
     Exponent=  2.4180490000D+00 Coefficients=  2.1497400000D-01
 S 1 1.00
     Exponent=  5.1190000000D-01 Coefficients=  1.0000000000D+00
 S 1 1.00
     Exponent=  1.5659000000D-01 Coefficients=  1.0000000000D+00
 S 1 1.00
     Exponent=  4.7900000000D-02 Coefficients=  1.0000000000D+00
 P 4 1.00
     Exponent=  1.8841800000D+01 Coefficients=  1.3887000000D-02
     Exponent=  4.1592400000D+00 Coefficients=  8.6279000000D-02
     Exponent=  1.2067100000D+00 Coefficients=  2.8874400000D-01
     Exponent=  3.8554000000D-01 Coefficients=  4.9941100000D-01
 P 1 1.00
     Exponent=  1.2194000000D-01 Coefficients=  1.0000000000D+00
 P 1 1.00
     Exponent=  3.8568000000D-02 Coefficients=  1.0000000000D+00
 D 2 1.00
     Exponent=  1.2067000000D+00 Coefficients=  2.6285000000D-01
     Exponent=  3.8550000000D-01 Coefficients=  8.0430000000D-01
 D 2 1.00
     Exponent=  1.2190000000D-01 Coefficients=  6.5350000000D-01
     Exponent=  3.8600000000D-02 Coefficients=  8.6360000000D-01
 ****
 Centers:       3      4      5
 S 4 1.00
     Exponent=  3.3865014000D+01 Coefficients=  6.0680000000D-03
     Exponent=  5.0947880000D+00 Coefficients=  4.5316000000D-02
     Exponent=  1.1587860000D+00 Coefficients=  2.0284600000D-01
     Exponent=  3.2584000000D-01 Coefficients=  5.0370900000D-01
 S 1 1.00
     Exponent=  1.0274100000D-01 Coefficients=  1.0000000000D+00
 S 1 1.00
     Exponent=  3.2400000000D-02 Coefficients=  1.0000000000D+00
 P 2 1.00
     Exponent=  1.1588000000D+00 Coefficients=  1.8844000000D-01
     Exponent=  3.2580000000D-01 Coefficients=  8.8242000000D-01
 P 2 1.00
     Exponent=  1.0270000000D-01 Coefficients=  1.1780000000D-01
     Exponent=  3.2400000000D-02 Coefficients=  4.2000000000D-03
 ****
 Centers:       6      7
 S 5 1.00
     Exponent=  1.0662285000D+04 Coefficients=  7.9900000000D-04
     Exponent=  1.5997097000D+03 Coefficients=  6.1530000000D-03
     Exponent=  3.6472526000D+02 Coefficients=  3.1157000000D-02
     Exponent=  1.0365179000D+02 Coefficients=  1.1559600000D-01
     Exponent=  3.3905805000D+01 Coefficients=  3.0155200000D-01
 S 2 1.00
     Exponent=  1.2287469000D+01 Coefficients=  4.4487000000D-01
     Exponent=  4.7568050000D+00 Coefficients=  2.4317200000D-01
 S 1 1.00
     Exponent=  1.0042710000D+00 Coefficients=  1.0000000000D+00
 S 1 1.00
     Exponent=  3.0068600000D-01 Coefficients=  1.0000000000D+00
 S 1 1.00
     Exponent=  9.0030000000D-02 Coefficients=  1.0000000000D+00
 P 4 1.00
     Exponent=  3.4856463000D+01 Coefficients=  1.5648000000D-02
     Exponent=  7.8431310000D+00 Coefficients=  9.8197000000D-02
     Exponent=  2.3062490000D+00 Coefficients=  3.0776800000D-01
     Exponent=  7.2316400000D-01 Coefficients=  4.9247000000D-01
 P 1 1.00
     Exponent=  2.1488200000D-01 Coefficients=  1.0000000000D+00
 P 1 1.00
     Exponent=  6.3850000000D-02 Coefficients=  1.0000000000D+00
 D 2 1.00
     Exponent=  2.3062000000D+00 Coefficients=  2.0270000000D-01
     Exponent=  7.2320000000D-01 Coefficients=  5.7910000000D-01
 D 2 1.00
     Exponent=  2.1490000000D-01 Coefficients=  7.8545000000D-01
     Exponent=  6.3900000000D-02 Coefficients=  5.3387000000D-01
 ****
 Ernie: Thresh=  0.10000D-02 Tol=  0.10000D-05 Strict=F.
 The following finite field(s) will be applied:
 An electric field of             -0.0008  0.0000  0.0000
 In input orientation:  3.73336827D-04  7.07544208D-04 -8.98163282D-07
 There are   131 symmetry adapted cartesian basis functions of A   symmetry.
 There are   123 symmetry adapted basis functions of A   symmetry.
   123 basis functions,   262 primitive gaussians,   131 cartesian basis functions
    16 alpha electrons       16 beta electrons
       nuclear repulsion energy       111.1233895856 Hartrees.
 IExCor=    0 DFT=F Ex=HF Corr=None ExCW=0 ScaHFX=  1.000000
 ScaDFX=  1.000000  1.000000  1.000000  1.000000 ScalE2=  1.000000  1.000000
 IRadAn=      0 IRanWt=     -1 IRanGd=            0 ICorTp=0 IEmpDi=  4
 NAtoms=    7 NActive=    7 NUniq=    7 SFac= 1.00D+00 NAtFMM=   60 NAOKFM=F Big=F
 Integral buffers will be    131072 words long.
 Raffenetti 1 integral format.
 Two-electron integral symmetry is turned on.
 Leave Link  301 at Wed May 15 16:45:52 2019, MaxMem=    33554432 cpu:         0.2
 (Enter /opt/g09/l302.exe)
 NPDir=0 NMtPBC=     1 NCelOv=     1 NCel=       1 NClECP=     1 NCelD=      1
         NCelK=      1 NCelE2=     1 NClLst=     1 CellRange=     0.0.
 One-electron integrals computed using PRISM.
 NBasis=   123 RedAO= T EigKep=  7.45D-05  NBF=   123
 NBsUse=   123 1.00D-06 EigRej= -1.00D+00 NBFU=   123
 Leave Link  302 at Wed May 15 16:45:52 2019, MaxMem=    33554432 cpu:         0.4
 (Enter /opt/g09/l303.exe)
 DipDrv:  MaxL=1.
 The nuclear repulsion energy is now       111.1233895856 hartrees.
 Leave Link  303 at Wed May 15 16:45:52 2019, MaxMem=    33554432 cpu:         0.1
 (Enter /opt/g09/l401.exe)
 ExpMin= 3.24D-02 ExpMax= 1.07D+04 ExpMxC= 1.60D+03 IAcc=3 IRadAn=         5 AccDes= 0.00D+00
 Harris functional with IExCor=  205 and IRadAn=       5 diagonalized for initial guess.
 HarFok:  IExCor=  205 AccDes= 0.00D+00 IRadAn=         5 IDoV= 1 UseB2=F ITyADJ=14
 ICtDFT=  3500011 ScaDFX=  1.000000  1.000000  1.000000  1.000000
 FoFCou: FMM=F IPFlag=           0 FMFlag=      100000 FMFlg1=           0
         NFxFlg=           0 DoJE=T BraDBF=F KetDBF=T FulRan=T
         wScrn=  0.000000 ICntrl=     500 IOpCl=  0 I1Cent=   200000004 NGrid=           0
         NMat0=    1 NMatS0=      1 NMatT0=    0 NMatD0=    1 NMtDS0=    0 NMtDT0=    0
 Petite list used in FoFCou.
 Harris En= -227.708292397198    
 JPrj=0 DoOrth=F DoCkMO=F.
 Leave Link  401 at Wed May 15 16:45:53 2019, MaxMem=    33554432 cpu:         1.2
 (Enter /opt/g09/l502.exe)
 Closed shell SCF:
 Using DIIS extrapolation, IDIIS=  1040.
 Integral symmetry usage will be decided dynamically.
 Keep R1 ints in memory in canonical form, NReq=31291442.
 IVT=     1059773 IEndB=     1059773 NGot=    33554432 MDV=     3412909
 LenX=     3412909 LenY=     3395307
 Requested convergence on RMS density matrix=1.00D-08 within1000 cycles.
 Requested convergence on MAX density matrix=1.00D-06.
 Requested convergence on             energy=1.00D-06.
 No special actions if energy rises.
 FoFCou: FMM=F IPFlag=           0 FMFlag=           0 FMFlg1=           0
         NFxFlg=           0 DoJE=F BraDBF=F KetDBF=F FulRan=T
         wScrn=  0.000000 ICntrl=     600 IOpCl=  0 I1Cent=           0 NGrid=           0
         NMat0=    1 NMatS0=   7626 NMatT0=    0 NMatD0=    1 NMtDS0=    0 NMtDT0=    0
 Symmetry not used in FoFCou.
 CoulSu:  requested number of processors reduced to:   3 ShMem   1 Linda.

 Cycle   1  Pass 1  IDiag  1:
 E= -227.061805438470    
 DIIS: error= 4.76D-02 at cycle   1 NSaved=   1.
 NSaved= 1 IEnMin= 1 EnMin= -227.061805438470     IErMin= 1 ErrMin= 4.76D-02
 ErrMax= 4.76D-02  0.00D+00 EMaxC= 1.00D-01 BMatC= 4.47D-01 BMatP= 4.47D-01
 IDIUse=3 WtCom= 5.24D-01 WtEn= 4.76D-01
 Coeff-Com:  0.100D+01
 Coeff-En:   0.100D+01
 Coeff:      0.100D+01
 Gap=     0.568 Goal=   None    Shift=    0.000
 GapD=    0.568 DampG=2.000 DampE=0.500 DampFc=1.0000 IDamp=-1.
 RMSDP=1.75D-02 MaxDP=3.90D-01              OVMax= 1.45D-01

 Cycle   2  Pass 1  IDiag  1:
 E= -227.247937907122     Delta-E=       -0.186132468652 Rises=F Damp=F
 DIIS: error= 1.83D-02 at cycle   2 NSaved=   2.
 NSaved= 2 IEnMin= 2 EnMin= -227.247937907122     IErMin= 2 ErrMin= 1.83D-02
 ErrMax= 1.83D-02  0.00D+00 EMaxC= 1.00D-01 BMatC= 7.49D-02 BMatP= 4.47D-01
 IDIUse=3 WtCom= 8.17D-01 WtEn= 1.83D-01
 Coeff-Com:  0.236D+00 0.764D+00
 Coeff-En:   0.000D+00 0.100D+01
 Coeff:      0.193D+00 0.807D+00
 Gap=     0.367 Goal=   None    Shift=    0.000
 RMSDP=3.92D-03 MaxDP=6.32D-02 DE=-1.86D-01 OVMax= 6.67D-02

 Cycle   3  Pass 1  IDiag  1:
 E= -227.298689337350     Delta-E=       -0.050751430228 Rises=F Damp=F
 DIIS: error= 5.33D-03 at cycle   3 NSaved=   3.
 NSaved= 3 IEnMin= 3 EnMin= -227.298689337350     IErMin= 3 ErrMin= 5.33D-03
 ErrMax= 5.33D-03  0.00D+00 EMaxC= 1.00D-01 BMatC= 8.15D-03 BMatP= 7.49D-02
 IDIUse=3 WtCom= 9.47D-01 WtEn= 5.33D-02
 Coeff-Com: -0.837D-02 0.229D+00 0.779D+00
 Coeff-En:   0.000D+00 0.000D+00 0.100D+01
 Coeff:     -0.792D-02 0.217D+00 0.791D+00
 Gap=     0.338 Goal=   None    Shift=    0.000
 RMSDP=9.29D-04 MaxDP=1.94D-02 DE=-5.08D-02 OVMax= 1.88D-02

 Cycle   4  Pass 1  IDiag  1:
 E= -227.304260207512     Delta-E=       -0.005570870162 Rises=F Damp=F
 DIIS: error= 1.39D-03 at cycle   4 NSaved=   4.
 NSaved= 4 IEnMin= 4 EnMin= -227.304260207512     IErMin= 4 ErrMin= 1.39D-03
 ErrMax= 1.39D-03  0.00D+00 EMaxC= 1.00D-01 BMatC= 2.72D-04 BMatP= 8.15D-03
 IDIUse=3 WtCom= 9.86D-01 WtEn= 1.39D-02
 Coeff-Com: -0.752D-02 0.406D-01 0.226D+00 0.741D+00
 Coeff-En:   0.000D+00 0.000D+00 0.000D+00 0.100D+01
 Coeff:     -0.741D-02 0.400D-01 0.223D+00 0.745D+00
 Gap=     0.328 Goal=   None    Shift=    0.000
 RMSDP=2.69D-04 MaxDP=4.95D-03 DE=-5.57D-03 OVMax= 5.16D-03

 Cycle   5  Pass 1  IDiag  1:
 E= -227.304543854641     Delta-E=       -0.000283647129 Rises=F Damp=F
 DIIS: error= 2.89D-04 at cycle   5 NSaved=   5.
 NSaved= 5 IEnMin= 5 EnMin= -227.304543854641     IErMin= 5 ErrMin= 2.89D-04
 ErrMax= 2.89D-04  0.00D+00 EMaxC= 1.00D-01 BMatC= 1.54D-05 BMatP= 2.72D-04
 IDIUse=3 WtCom= 9.97D-01 WtEn= 2.89D-03
 Coeff-Com:  0.191D-02-0.268D-01-0.119D+00-0.939D-01 0.124D+01
 Coeff-En:   0.000D+00 0.000D+00 0.000D+00 0.000D+00 0.100D+01
 Coeff:      0.190D-02-0.267D-01-0.118D+00-0.937D-01 0.124D+01
 Gap=     0.328 Goal=   None    Shift=    0.000
 RMSDP=1.17D-04 MaxDP=2.89D-03 DE=-2.84D-04 OVMax= 2.74D-03

 Cycle   6  Pass 1  IDiag  1:
 E= -227.304573127732     Delta-E=       -0.000029273091 Rises=F Damp=F
 DIIS: error= 4.87D-05 at cycle   6 NSaved=   6.
 NSaved= 6 IEnMin= 6 EnMin= -227.304573127732     IErMin= 6 ErrMin= 4.87D-05
 ErrMax= 4.87D-05  0.00D+00 EMaxC= 1.00D-01 BMatC= 3.73D-07 BMatP= 1.54D-05
 IDIUse=1 WtCom= 1.00D+00 WtEn= 0.00D+00
 Coeff-Com:  0.268D-03-0.572D-03-0.366D-02-0.198D-01-0.697D-01 0.109D+01
 Coeff:      0.268D-03-0.572D-03-0.366D-02-0.198D-01-0.697D-01 0.109D+01
 Gap=     0.328 Goal=   None    Shift=    0.000
 RMSDP=2.09D-05 MaxDP=4.43D-04 DE=-2.93D-05 OVMax= 5.52D-04

 Cycle   7  Pass 1  IDiag  1:
 E= -227.304574127814     Delta-E=       -0.000001000082 Rises=F Damp=F
 DIIS: error= 1.42D-05 at cycle   7 NSaved=   7.
 NSaved= 7 IEnMin= 7 EnMin= -227.304574127814     IErMin= 7 ErrMin= 1.42D-05
 ErrMax= 1.42D-05  0.00D+00 EMaxC= 1.00D-01 BMatC= 4.57D-08 BMatP= 3.73D-07
 IDIUse=1 WtCom= 1.00D+00 WtEn= 0.00D+00
 Coeff-Com: -0.161D-03 0.243D-02 0.104D-01 0.725D-02-0.121D+00 0.118D+00
 Coeff-Com:  0.983D+00
 Coeff:     -0.161D-03 0.243D-02 0.104D-01 0.725D-02-0.121D+00 0.118D+00
 Coeff:      0.983D+00
 Gap=     0.328 Goal=   None    Shift=    0.000
 RMSDP=5.57D-06 MaxDP=1.11D-04 DE=-1.00D-06 OVMax= 1.58D-04

 Cycle   8  Pass 1  IDiag  1:
 E= -227.304574218109     Delta-E=       -0.000000090295 Rises=F Damp=F
 DIIS: error= 4.08D-06 at cycle   8 NSaved=   8.
 NSaved= 8 IEnMin= 8 EnMin= -227.304574218109     IErMin= 8 ErrMin= 4.08D-06
 ErrMax= 4.08D-06  0.00D+00 EMaxC= 1.00D-01 BMatC= 3.61D-09 BMatP= 4.57D-08
 IDIUse=1 WtCom= 1.00D+00 WtEn= 0.00D+00
 Coeff-Com: -0.214D-04 0.130D-03 0.366D-03 0.173D-02 0.272D-02-0.753D-01
 Coeff-Com: -0.284D-02 0.107D+01
 Coeff:     -0.214D-04 0.130D-03 0.366D-03 0.173D-02 0.272D-02-0.753D-01
 Coeff:     -0.284D-02 0.107D+01
 Gap=     0.328 Goal=   None    Shift=    0.000
 RMSDP=1.51D-06 MaxDP=2.98D-05 DE=-9.03D-08 OVMax= 4.36D-05

 Cycle   9  Pass 1  IDiag  1:
 E= -227.304574226234     Delta-E=       -0.000000008124 Rises=F Damp=F
 DIIS: error= 1.85D-06 at cycle   9 NSaved=   9.
 NSaved= 9 IEnMin= 9 EnMin= -227.304574226234     IErMin= 9 ErrMin= 1.85D-06
 ErrMax= 1.85D-06  0.00D+00 EMaxC= 1.00D-01 BMatC= 9.19D-10 BMatP= 3.61D-09
 IDIUse=1 WtCom= 1.00D+00 WtEn= 0.00D+00
 Coeff-Com:  0.998D-05-0.208D-03-0.987D-03-0.157D-03 0.132D-01-0.330D-01
 Coeff-Com: -0.117D+00 0.346D+00 0.792D+00
 Coeff:      0.998D-05-0.208D-03-0.987D-03-0.157D-03 0.132D-01-0.330D-01
 Coeff:     -0.117D+00 0.346D+00 0.792D+00
 Gap=     0.328 Goal=   None    Shift=    0.000
 RMSDP=4.47D-07 MaxDP=1.13D-05 DE=-8.12D-09 OVMax= 1.23D-05

 Cycle  10  Pass 1  IDiag  1:
 E= -227.304574227469     Delta-E=       -0.000000001235 Rises=F Damp=F
 DIIS: error= 8.79D-07 at cycle  10 NSaved=  10.
 NSaved=10 IEnMin=10 EnMin= -227.304574227469     IErMin=10 ErrMin= 8.79D-07
 ErrMax= 8.79D-07  0.00D+00 EMaxC= 1.00D-01 BMatC= 8.77D-11 BMatP= 9.19D-10
 IDIUse=1 WtCom= 1.00D+00 WtEn= 0.00D+00
 Coeff-Com:  0.488D-05-0.522D-04-0.210D-03-0.279D-03 0.123D-02 0.107D-01
 Coeff-Com: -0.251D-01-0.120D+00 0.895D-01 0.104D+01
 Coeff:      0.488D-05-0.522D-04-0.210D-03-0.279D-03 0.123D-02 0.107D-01
 Coeff:     -0.251D-01-0.120D+00 0.895D-01 0.104D+01
 Gap=     0.328 Goal=   None    Shift=    0.000
 RMSDP=2.38D-07 MaxDP=7.20D-06 DE=-1.24D-09 OVMax= 9.16D-06

 Cycle  11  Pass 1  IDiag  1:
 E= -227.304574227709     Delta-E=       -0.000000000239 Rises=F Damp=F
 DIIS: error= 2.18D-07 at cycle  11 NSaved=  11.
 NSaved=11 IEnMin=11 EnMin= -227.304574227709     IErMin=11 ErrMin= 2.18D-07
 ErrMax= 2.18D-07  0.00D+00 EMaxC= 1.00D-01 BMatC= 1.07D-11 BMatP= 8.77D-11
 IDIUse=1 WtCom= 1.00D+00 WtEn= 0.00D+00
 Coeff-Com: -0.184D-05 0.316D-04 0.141D-03 0.897D-04-0.166D-02 0.167D-02
 Coeff-Com:  0.153D-01-0.660D-02-0.139D+00-0.167D+00 0.130D+01
 Coeff:     -0.184D-05 0.316D-04 0.141D-03 0.897D-04-0.166D-02 0.167D-02
 Coeff:      0.153D-01-0.660D-02-0.139D+00-0.167D+00 0.130D+01
 Gap=     0.328 Goal=   None    Shift=    0.000
 RMSDP=9.88D-08 MaxDP=2.74D-06 DE=-2.39D-10 OVMax= 3.88D-06

 Cycle  12  Pass 1  IDiag  1:
 E= -227.304574227745     Delta-E=       -0.000000000037 Rises=F Damp=F
 DIIS: error= 6.43D-08 at cycle  12 NSaved=  12.
 NSaved=12 IEnMin=12 EnMin= -227.304574227745     IErMin=12 ErrMin= 6.43D-08
 ErrMax= 6.43D-08  0.00D+00 EMaxC= 1.00D-01 BMatC= 8.80D-13 BMatP= 1.07D-11
 IDIUse=1 WtCom= 1.00D+00 WtEn= 0.00D+00
 Coeff-Com:  0.120D-06-0.537D-05-0.277D-04 0.445D-06 0.460D-03-0.187D-02
 Coeff-Com: -0.213D-02 0.166D-01 0.258D-01-0.163D-01-0.473D+00 0.145D+01
 Coeff:      0.120D-06-0.537D-05-0.277D-04 0.445D-06 0.460D-03-0.187D-02
 Coeff:     -0.213D-02 0.166D-01 0.258D-01-0.163D-01-0.473D+00 0.145D+01
 Gap=     0.328 Goal=   None    Shift=    0.000
 RMSDP=3.47D-08 MaxDP=8.46D-07 DE=-3.67D-11 OVMax= 1.42D-06

 Cycle  13  Pass 1  IDiag  1:
 E= -227.304574227746     Delta-E=       -0.000000000001 Rises=F Damp=F
 DIIS: error= 1.79D-08 at cycle  13 NSaved=  13.
 NSaved=13 IEnMin=13 EnMin= -227.304574227746     IErMin=13 ErrMin= 1.79D-08
 ErrMax= 1.79D-08  0.00D+00 EMaxC= 1.00D-01 BMatC= 6.26D-14 BMatP= 8.80D-13
 IDIUse=1 WtCom= 1.00D+00 WtEn= 0.00D+00
 Coeff-Com:  0.701D-07-0.177D-06 0.192D-05-0.687D-05-0.646D-04 0.589D-03
 Coeff-Com: -0.178D-03-0.506D-02-0.451D-02 0.195D-01 0.957D-01-0.562D+00
 Coeff-Com:  0.146D+01
 Coeff:      0.701D-07-0.177D-06 0.192D-05-0.687D-05-0.646D-04 0.589D-03
 Coeff:     -0.178D-03-0.506D-02-0.451D-02 0.195D-01 0.957D-01-0.562D+00
 Coeff:      0.146D+01
 Gap=     0.328 Goal=   None    Shift=    0.000
 RMSDP=8.46D-09 MaxDP=1.88D-07 DE=-1.08D-12 OVMax= 3.66D-07

 SCF Done:  E(RHF) =  -227.304574228     A.U. after   13 cycles
            NFock= 13  Conv=0.85D-08     -V/T= 2.0019
 KE= 2.268695175678D+02 PE=-7.661625478507D+02 EE= 2.008650664696D+02
 Leave Link  502 at Wed May 15 16:45:54 2019, MaxMem=    33554432 cpu:         3.1
 (Enter /opt/g09/l801.exe)
 ExpMin= 3.24D-02 ExpMax= 1.07D+04 ExpMxC= 1.60D+03 IAcc=3 IRadAn=         5 AccDes= 0.00D+00
 HarFok:  IExCor=  205 AccDes= 0.00D+00 IRadAn=         5 IDoV=-2 UseB2=F ITyADJ=14
 ICtDFT= 12500011 ScaDFX=  1.000000  1.000000  1.000000  1.000000
 Largest valence mixing into a core orbital is  1.59D-04
 Largest core mixing into a valence orbital is  4.29D-05
 Range of M.O.s used for correlation:     5   123
 NBasis=   123 NAE=    16 NBE=    16 NFC=     4 NFV=     0
 NROrb=    119 NOA=    12 NOB=    12 NVA=   107 NVB=   107

 **** Warning!!: The largest alpha MO coefficient is  0.34943225D+02

 Leave Link  801 at Wed May 15 16:45:54 2019, MaxMem=    33554432 cpu:         0.3
 (Enter /opt/g09/l906.exe)
 Frozen-core derivative calculation, NFC=   4 NFV=   0.
 FulOut=F Deriv=T AODrv=F NAtomX=     7
   MMem=          27  MDisk=          12 MDiskD=          12
  W3Min=      257808 MinDsk=      472606 NBas6D=         131
 NBas2D=        8820    NTT=        8646    LW2=     2040000
    MDV=    33331016 MDiskM=        3321 NBas2p=        8805
 Fully direct method using O(ONN) memory.
 IMap=   1   2   3   4   5   6   7   8   9  10  11  12  13  14  15  16
 JobTyp=1 Pass  1:  I=   5 to   5 NPSUse=  4 ParTrn=T ParDer=T DoDerP=T.
 JobTyp=1 Pass  2:  I=   6 to   6 NPSUse=  4 ParTrn=T ParDer=T DoDerP=T.
 JobTyp=1 Pass  3:  I=   7 to   7 NPSUse=  4 ParTrn=T ParDer=T DoDerP=T.
 JobTyp=1 Pass  4:  I=   8 to   8 NPSUse=  4 ParTrn=T ParDer=T DoDerP=T.
 JobTyp=1 Pass  5:  I=   9 to   9 NPSUse=  4 ParTrn=T ParDer=T DoDerP=T.
 JobTyp=1 Pass  6:  I=  10 to  10 NPSUse=  4 ParTrn=T ParDer=T DoDerP=T.
 JobTyp=1 Pass  7:  I=  11 to  11 NPSUse=  4 ParTrn=T ParDer=T DoDerP=T.
 JobTyp=1 Pass  8:  I=  12 to  12 NPSUse=  4 ParTrn=T ParDer=T DoDerP=T.
 JobTyp=1 Pass  9:  I=  13 to  13 NPSUse=  4 ParTrn=T ParDer=T DoDerP=T.
 JobTyp=1 Pass 10:  I=  14 to  14 NPSUse=  4 ParTrn=T ParDer=T DoDerP=T.
 JobTyp=1 Pass 11:  I=  15 to  15 NPSUse=  4 ParTrn=T ParDer=T DoDerP=T.
 JobTyp=1 Pass 12:  I=  16 to  16 NPSUse=  4 ParTrn=T ParDer=T DoDerP=T.
 Spin components of T(2) and E(2):
     alpha-alpha T2 =       0.3022827027D-01 E2=     -0.9174892882D-01
     alpha-beta  T2 =       0.1597005850D+00 E2=     -0.4979690500D+00
     beta-beta   T2 =       0.3022827027D-01 E2=     -0.9174892882D-01
 The integrals were generated  12 times.
 ANorm=    0.1104607227D+01
 E2 =    -0.6814669077D+00 EUMP2 =    -0.22798604113540D+03
 Leave Link  906 at Wed May 15 16:46:15 2019, MaxMem=    33554432 cpu:        83.4
 (Enter /opt/g09/l1002.exe)
 Minotr:  Closed shell wavefunction.
          Computing MP2/KS-MP2 derivatives.
          Using Z-Vector for PSCF gradient.
          Skipping F1 and S1 gradient terms here.
          Frozen-core window.
          Direct CPHF calculation.
          Differentiating once with respect to electric field.
                with respect to dipole field.
          Electric field/nuclear overlap derivatives assumed to be zero.
          Requested convergence is 1.0D-10 RMS, and 1.0D-09 maximum.
          NewPWx=F KeepS1=T KeepF1=T KeepIn=T MapXYZ=F SortEE=F KeepMc=T.
          MDV=      33554253 using IRadAn=       0.
 Keep R1 ints in memory in canonical form, NReq=30232728.
 FoFCou: FMM=F IPFlag=           0 FMFlag=           0 FMFlg1=           0
         NFxFlg=           0 DoJE=F BraDBF=F KetDBF=F FulRan=T
         wScrn=  0.000000 ICntrl=     600 IOpCl=  0 I1Cent=           0 NGrid=           0
         NMat0=    1 NMatS0=   7626 NMatT0=    0 NMatD0=    1 NMtDS0=    0 NMtDT0=    0
 Symmetry not used in FoFCou.
          Solving linear equations separately, MaxMat=       0.
          There are     1 degrees of freedom in the 1st order CPHF.  IDoFFX=0 NUNeed=     1.
 LinEq1:  Iter=  0 NonCon=     1 RMS=7.37D-03 Max=8.24D-02 NDo=     1
 AX will form     1 AO Fock derivatives at one time.
 LinEq1:  Iter=  1 NonCon=     1 RMS=2.18D-03 Max=2.03D-02 NDo=     1
 LinEq1:  Iter=  2 NonCon=     1 RMS=6.80D-04 Max=7.18D-03 NDo=     1
 LinEq1:  Iter=  3 NonCon=     1 RMS=1.08D-04 Max=1.03D-03 NDo=     1
 LinEq1:  Iter=  4 NonCon=     1 RMS=3.42D-05 Max=4.12D-04 NDo=     1
 LinEq1:  Iter=  5 NonCon=     1 RMS=9.72D-06 Max=7.85D-05 NDo=     1
 LinEq1:  Iter=  6 NonCon=     1 RMS=2.47D-06 Max=2.65D-05 NDo=     1
 LinEq1:  Iter=  7 NonCon=     1 RMS=1.25D-06 Max=1.29D-05 NDo=     1
 LinEq1:  Iter=  8 NonCon=     1 RMS=2.42D-07 Max=2.13D-06 NDo=     1
 LinEq1:  Iter=  9 NonCon=     1 RMS=6.19D-08 Max=5.41D-07 NDo=     1
 LinEq1:  Iter= 10 NonCon=     1 RMS=1.82D-08 Max=1.81D-07 NDo=     1
 LinEq1:  Iter= 11 NonCon=     1 RMS=2.80D-09 Max=2.34D-08 NDo=     1
 LinEq1:  Iter= 12 NonCon=     1 RMS=7.04D-10 Max=5.48D-09 NDo=     1
 LinEq1:  Iter= 13 NonCon=     1 RMS=1.67D-10 Max=1.71D-09 NDo=     1
 LinEq1:  Iter= 14 NonCon=     0 RMS=2.66D-11 Max=1.79D-10 NDo=     1
 Linear equations converged to 1.000D-10 1.000D-09 after    14 iterations.
 End of Minotr F.D. properties file   721 does not exist.
 End of Minotr F.D. properties file   722 does not exist.
 End of Minotr F.D. properties file   788 does not exist.
 Leave Link 1002 at Wed May 15 16:46:16 2019, MaxMem=    33554432 cpu:         3.2
 (Enter /opt/g09/l601.exe)
 Copying SCF densities to generalized density rwf, IOpCl= 0 IROHF=0.

 **********************************************************************

            Population analysis using the MP2 density.

 **********************************************************************

 Orbital symmetries:
       Occupied  (A) (A) (A) (A) (A) (A) (A) (A) (A) (A) (A) (A)
                 (A) (A) (A) (A)
       Virtual   (A) (A) (A) (A) (A) (A) (A) (A) (A) (A) (A) (A)
                 (A) (A) (A) (A) (A) (A) (A) (A) (A) (A) (A) (A)
                 (A) (A) (A) (A) (A) (A) (A) (A) (A) (A) (A) (A)
                 (A) (A) (A) (A) (A) (A) (A) (A) (A) (A) (A) (A)
                 (A) (A) (A) (A) (A) (A) (A) (A) (A) (A) (A) (A)
                 (A) (A) (A) (A) (A) (A) (A) (A) (A) (A) (A) (A)
                 (A) (A) (A) (A) (A) (A) (A) (A) (A) (A) (A) (A)
                 (A) (A) (A) (A) (A) (A) (A) (A) (A) (A) (A) (A)
                 (A) (A) (A) (A) (A) (A) (A) (A) (A) (A) (A)
 The electronic state is 1-A.
 Alpha  occ. eigenvalues --  -20.28996 -20.28707 -11.14098 -11.05757  -1.15304
 Alpha  occ. eigenvalues --   -1.05496  -0.79426  -0.51273  -0.41610  -0.41095
 Alpha  occ. eigenvalues --   -0.41090  -0.35846  -0.31290  -0.20100  -0.19416
 Alpha  occ. eigenvalues --   -0.18641
 Alpha virt. eigenvalues --    0.14145   0.15311   0.15506   0.19459   0.22651
 Alpha virt. eigenvalues --    0.23147   0.23660   0.24347   0.24592   0.28528
 Alpha virt. eigenvalues --    0.29651   0.30709   0.31288   0.35883   0.37152
 Alpha virt. eigenvalues --    0.38444   0.39310   0.40245   0.42486   0.43826
 Alpha virt. eigenvalues --    0.44543   0.45962   0.46258   0.46507   0.49936
 Alpha virt. eigenvalues --    0.51695   0.53610   0.53679   0.54419   0.54455
 Alpha virt. eigenvalues --    0.55441   0.56383   0.56546   0.58100   0.59315
 Alpha virt. eigenvalues --    0.61260   0.64158   0.64814   0.68340   0.69446
 Alpha virt. eigenvalues --    0.74693   0.75315   0.78046   0.84629   0.87552
 Alpha virt. eigenvalues --    0.88967   0.91457   0.92314   0.94098   0.95680
 Alpha virt. eigenvalues --    0.96817   0.99573   1.05629   1.07316   1.08860
 Alpha virt. eigenvalues --    1.10534   1.13305   1.14829   1.16299   1.16860
 Alpha virt. eigenvalues --    1.21307   1.22672   1.23901   1.28737   1.36134
 Alpha virt. eigenvalues --    1.38788   1.38930   1.44760   1.46751   1.58179
 Alpha virt. eigenvalues --    1.58320   1.63901   1.64270   1.73440   1.76296
 Alpha virt. eigenvalues --    1.80747   1.82609   1.88171   1.89027   1.96066
 Alpha virt. eigenvalues --    2.00939   2.03655   2.06173   2.25547   2.29462
 Alpha virt. eigenvalues --    2.45259   2.47335   2.54939   2.61403   2.74652
 Alpha virt. eigenvalues --    2.77763   2.83689   2.90314   2.90998   2.96452
 Alpha virt. eigenvalues --    3.02386   3.12327   3.17907   3.47544   3.51573
 Alpha virt. eigenvalues --    3.67312   3.75862   3.89512  22.91158  23.17598
 Alpha virt. eigenvalues --   44.46526  44.51654
          Condensed to atoms (all electrons):
               1          2          3          4          5          6
     1  C    6.786773  -2.054758  -0.900586  -0.559532  -0.556996   0.355198
     2  C   -2.054758   8.762896   0.564146   0.155503   0.155049  -0.473182
     3  H   -0.900586   0.564146   3.601084  -0.725895  -0.726223  -0.049113
     4  H   -0.559532   0.155503  -0.725895   3.343734  -0.511996  -0.054962
     5  H   -0.556996   0.155049  -0.726223  -0.511996   3.341941  -0.055006
     6  O    0.355198  -0.473182  -0.049113  -0.054962  -0.055006   8.857074
     7  O    0.269009  -0.372130  -0.083837   0.003848   0.003589  -0.133868
               7
     1  C    0.269009
     2  C   -0.372130
     3  H   -0.083837
     4  H    0.003848
     5  H    0.003589
     6  O   -0.133868
     7  O    8.809985
 Mulliken charges:
               1
     1  C    2.660893
     2  C   -0.737524
     3  H   -0.679576
     4  H   -0.650700
     5  H   -0.650358
     6  O   -0.446140
     7  O   -0.496596
 Sum of Mulliken charges =  -1.00000
 Mulliken charges with hydrogens summed into heavy atoms:
               1
     1  C    0.680259
     2  C   -0.737524
     6  O   -0.446140
     7  O   -0.496596
 Electronic spatial extent (au):  <R**2>=            262.2733
 Charge=             -1.0000 electrons
 Dipole moment (field-independent basis, Debye):
    X=             -3.6342    Y=             -0.1931    Z=             -0.0013  Tot=              3.6393
 Quadrupole moment (field-independent basis, Debye-Ang):
   XX=            -33.6170   YY=            -36.9231   ZZ=            -26.4891
   XY=              0.1845   XZ=             -0.0023   YZ=              0.0004
 Traceless Quadrupole moment (field-independent basis, Debye-Ang):
   XX=             -1.2739   YY=             -4.5801   ZZ=              5.8540
   XY=              0.1845   XZ=             -0.0023   YZ=              0.0004
 Octapole moment (field-independent basis, Debye-Ang**2):
  XXX=              4.7566  YYY=             -1.3279  ZZZ=              0.0064  XYY=             -5.5614
  XXY=              0.7545  XXZ=              0.0029  XZZ=              0.9063  YZZ=              0.4006
  YYZ=              0.0062  XYZ=             -0.0005
 Hexadecapole moment (field-independent basis, Debye-Ang**3):
 XXXX=           -217.6293 YYYY=           -165.9268 ZZZZ=            -39.5614 XXXY=             -0.4653
 XXXZ=             -0.0042 YYYX=              0.8102 YYYZ=              0.0009 ZZZX=              0.0005
 ZZZY=              0.0021 XXYY=            -62.8174 XXZZ=            -39.4926 YYZZ=            -32.5936
 XXYZ=              0.0000 YYXZ=              0.0022 ZZXY=             -0.7516
 N-N= 1.111233895856D+02 E-N=-7.657642165011D+02  KE= 2.273819220760D+02
 No NMR shielding tensors so no spin-rotation constants.
 Leave Link  601 at Wed May 15 16:46:16 2019, MaxMem=    33554432 cpu:         0.4
 (Enter /opt/g09/l9999.exe)
 1\1\GINC-RHO\SP\RMP2-FC\Gen\C2H3O2(1-)\ESTHER\15-May-2019\0\\#p MP2/Ge
 n SCF=(MAXCYCLE=1000) field=x-8 density=current\\polar\\-1,1\C,0,0.613
 1460756,1.2968175747,-0.0014086521\C,0,-0.0544987649,-0.1017278937,-0.
 0010885645\H,0,-0.1352324996,2.0947358178,-0.0009365176\H,0,1.25558974
 84,1.392531006,-0.8842054401\H,0,1.2566377172,1.3924730671,0.880634403
 \O,0,-1.3241280581,-0.1234767658,0.0016022929\O,0,0.7552370717,-1.0805
 934429,0.000555232\\Version=ES64L-G09RevD.01\State=1-A\HF=-227.3045742
 \MP2=-227.9860411\RMSD=8.460e-09\Dipole=0.6000423,1.3000021,-0.0020863
 \Quadrupole=-2.9831007,-1.3692073,4.352308,0.9370914,0.0067072,0.00520
 78\PG=C01 [X(C2H3O2)]\\@


 A BIRD IN THE HAND IS SAFER THAN ONE OVERHEAD.

                       -- NEWTON'S SEVENTH LAW
 Job cpu time:       0 days  0 hours  1 minutes 32.8 seconds.
 File lengths (MBytes):  RWF=      8 Int=      0 D2E=      0 Chk=      3 Scr=      1
 Normal termination of Gaussian 09 at Wed May 15 16:46:16 2019.
