polar                                                                   
SP        RMP2-FC                                                     Gen                 
Number of atoms                            I                7
Info1-9                                    I   N=           9
          98          97           0           0           0         110
           1           2           1
Charge                                     I               -1
Multiplicity                               I                1
Number of electrons                        I               32
Number of alpha electrons                  I               16
Number of beta electrons                   I               16
Number of basis functions                  I              123
Number of independent functions            I              123
Number of point charges in /Mol/           I                0
Number of translation vectors              I                0
Atomic numbers                             I   N=           7
           6           6           1           1           1           8
           8
Nuclear charges                            R   N=           7
  6.00000000E+00  6.00000000E+00  1.00000000E+00  1.00000000E+00  1.00000000E+00
  8.00000000E+00  8.00000000E+00
Current cartesian coordinates              R   N=          21
 -2.54428286E+00 -1.13586773E-01  2.85538053E-04  3.81933111E-01  3.90875389E-03
 -2.34836320E-03 -3.21788690E+00 -2.06804530E+00  1.16054731E-03 -3.27268314E+00
  8.76401845E-01 -1.66675025E+00 -3.26976620E+00  8.76884631E-01  1.66831300E+00
  1.53794963E+00 -2.09888477E+00  6.06601768E-04  1.30385471E+00  2.22048813E+00
  6.00104543E-04
Force Field                                I                0
Int Atom Types                             I   N=           7
           0           0           0           0           0           0
           0
MM charges                                 R   N=           7
  0.00000000E+00  0.00000000E+00  0.00000000E+00  0.00000000E+00  0.00000000E+00
  0.00000000E+00  0.00000000E+00
Integer atomic weights                     I   N=           7
          12          12           1           1           1          16
          16
Real atomic weights                        R   N=           7
  1.20000000E+01  1.20000000E+01  1.00782504E+00  1.00782504E+00  1.00782504E+00
  1.59949146E+01  1.59949146E+01
Atom fragment info                         I   N=           7
           0           0           0           0           0           0
           0
Atom residue num                           I   N=           7
           0           0           0           0           0           0
           0
Nuclear spins                              I   N=           7
           0           0           1           1           1           0
           0
Nuclear ZEff                               R   N=           7
 -3.60000000E+00 -3.60000000E+00 -1.00000000E+00 -1.00000000E+00 -1.00000000E+00
 -5.60000000E+00 -5.60000000E+00
Nuclear ZNuc                               R   N=           7
  6.00000000E+00  6.00000000E+00  1.00000000E+00  1.00000000E+00  1.00000000E+00
  8.00000000E+00  8.00000000E+00
Nuclear QMom                               R   N=           7
  0.00000000E+00  0.00000000E+00  0.00000000E+00  0.00000000E+00  0.00000000E+00
  0.00000000E+00  0.00000000E+00
Nuclear GFac                               R   N=           7
  0.00000000E+00  0.00000000E+00  2.79284600E+00  2.79284600E+00  2.79284600E+00
  0.00000000E+00  0.00000000E+00
MicOpt                                     I   N=           7
          -1          -1          -1          -1          -1          -1
          -1
Number of contracted shells                I               55
Number of primitive shells                 I              110
Pure/Cartesian d shells                    I                0
Pure/Cartesian f shells                    I                0
Highest angular momentum                   I                2
Largest degree of contraction              I                5
Shell types                                I   N=          55
           0           0           0           0           0           1
           1           1          -2          -2           0           0
           0           0           0           1           1           1
          -2          -2           0           0           0           1
           1           0           0           0           1           1
           0           0           0           1           1           0
           0           0           0           0           1           1
           1          -2          -2           0           0           0
           0           0           1           1           1          -2
          -2
Number of primitives per shell             I   N=          55
           5           2           1           1           1           4
           1           1           2           2           5           2
           1           1           1           4           1           1
           2           2           4           1           1           2
           2           4           1           1           2           2
           4           1           1           2           2           5
           2           1           1           1           4           1
           1           2           2           5           2           1
           1           1           4           1           1           2
           2
Shell to atom map                          I   N=          55
           1           1           1           1           1           1
           1           1           1           1           2           2
           2           2           2           2           2           2
           2           2           3           3           3           3
           3           4           4           4           4           4
           5           5           5           5           5           6
           6           6           6           6           6           6
           6           6           6           7           7           7
           7           7           7           7           7           7
           7
Primitive exponents                        R   N=         110
  5.24063530E+03  7.82204800E+02  1.78350830E+02  5.08159420E+01  1.68235620E+01
  6.17577600E+00  2.41804900E+00  5.11900000E-01  1.56590000E-01  4.79000000E-02
  1.88418000E+01  4.15924000E+00  1.20671000E+00  3.85540000E-01  1.21940000E-01
  3.85680000E-02  1.20670000E+00  3.85500000E-01  1.21900000E-01  3.86000000E-02
  5.24063530E+03  7.82204800E+02  1.78350830E+02  5.08159420E+01  1.68235620E+01
  6.17577600E+00  2.41804900E+00  5.11900000E-01  1.56590000E-01  4.79000000E-02
  1.88418000E+01  4.15924000E+00  1.20671000E+00  3.85540000E-01  1.21940000E-01
  3.85680000E-02  1.20670000E+00  3.85500000E-01  1.21900000E-01  3.86000000E-02
  3.38650140E+01  5.09478800E+00  1.15878600E+00  3.25840000E-01  1.02741000E-01
  3.24000000E-02  1.15880000E+00  3.25800000E-01  1.02700000E-01  3.24000000E-02
  3.38650140E+01  5.09478800E+00  1.15878600E+00  3.25840000E-01  1.02741000E-01
  3.24000000E-02  1.15880000E+00  3.25800000E-01  1.02700000E-01  3.24000000E-02
  3.38650140E+01  5.09478800E+00  1.15878600E+00  3.25840000E-01  1.02741000E-01
  3.24000000E-02  1.15880000E+00  3.25800000E-01  1.02700000E-01  3.24000000E-02
  1.06622850E+04  1.59970970E+03  3.64725260E+02  1.03651790E+02  3.39058050E+01
  1.22874690E+01  4.75680500E+00  1.00427100E+00  3.00686000E-01  9.00300000E-02
  3.48564630E+01  7.84313100E+00  2.30624900E+00  7.23164000E-01  2.14882000E-01
  6.38500000E-02  2.30620000E+00  7.23200000E-01  2.14900000E-01  6.39000000E-02
  1.06622850E+04  1.59970970E+03  3.64725260E+02  1.03651790E+02  3.39058050E+01
  1.22874690E+01  4.75680500E+00  1.00427100E+00  3.00686000E-01  9.00300000E-02
  3.48564630E+01  7.84313100E+00  2.30624900E+00  7.23164000E-01  2.14882000E-01
  6.38500000E-02  2.30620000E+00  7.23200000E-01  2.14900000E-01  6.39000000E-02
Contraction coefficients                   R   N=         110
  2.06539993E-03  1.59324554E-02  8.01119476E-02  2.87877514E-01  7.03009673E-01
  6.94067370E-01  3.40077856E-01  1.00000000E+00  1.00000000E+00  1.00000000E+00
  1.80615059E-02  1.12214925E-01  3.75541979E-01  6.49536597E-01  1.00000000E+00
  1.00000000E+00  2.67978866E-01  8.19993920E-01  4.83796365E-01  6.39336711E-01
  2.06539993E-03  1.59324554E-02  8.01119476E-02  2.87877514E-01  7.03009673E-01
  6.94067370E-01  3.40077856E-01  1.00000000E+00  1.00000000E+00  1.00000000E+00
  1.80615059E-02  1.12214925E-01  3.75541979E-01  6.49536597E-01  1.00000000E+00
  1.00000000E+00  2.67978866E-01  8.19993920E-01  4.83796365E-01  6.39336711E-01
  8.76044950E-03  6.54232910E-02  2.92851374E-01  7.27211150E-01  1.00000000E+00
  1.00000000E+00  1.86447366E-01  8.73088966E-01  9.76214574E-01  3.48056130E-02
  8.76044950E-03  6.54232910E-02  2.92851374E-01  7.27211150E-01  1.00000000E+00
  1.00000000E+00  1.86447366E-01  8.73088966E-01  9.76214574E-01  3.48056130E-02
  8.76044950E-03  6.54232910E-02  2.92851374E-01  7.27211150E-01  1.00000000E+00
  1.00000000E+00  1.86447366E-01  8.73088966E-01  9.76214574E-01  3.48056130E-02
  1.90604745E-03  1.46782352E-02  7.43263084E-02  2.75759025E-01  7.19364732E-01
  6.69996511E-01  3.66229217E-01  1.00000000E+00  1.00000000E+00  1.00000000E+00
  1.99439284E-02  1.25155543E-01  3.92261182E-01  6.27670401E-01  1.00000000E+00
  1.00000000E+00  2.83613619E-01  8.10264660E-01  6.73833443E-01  4.58004278E-01
  1.90604745E-03  1.46782352E-02  7.43263084E-02  2.75759025E-01  7.19364732E-01
  6.69996511E-01  3.66229217E-01  1.00000000E+00  1.00000000E+00  1.00000000E+00
  1.99439284E-02  1.25155543E-01  3.92261182E-01  6.27670401E-01  1.00000000E+00
  1.00000000E+00  2.83613619E-01  8.10264660E-01  6.73833443E-01  4.58004278E-01
Coordinates of each shell                  R   N=         165
 -2.54428286E+00 -1.13586773E-01  2.85538053E-04 -2.54428286E+00 -1.13586773E-01
  2.85538053E-04 -2.54428286E+00 -1.13586773E-01  2.85538053E-04 -2.54428286E+00
 -1.13586773E-01  2.85538053E-04 -2.54428286E+00 -1.13586773E-01  2.85538053E-04
 -2.54428286E+00 -1.13586773E-01  2.85538053E-04 -2.54428286E+00 -1.13586773E-01
  2.85538053E-04 -2.54428286E+00 -1.13586773E-01  2.85538053E-04 -2.54428286E+00
 -1.13586773E-01  2.85538053E-04 -2.54428286E+00 -1.13586773E-01  2.85538053E-04
  3.81933111E-01  3.90875389E-03 -2.34836320E-03  3.81933111E-01  3.90875389E-03
 -2.34836320E-03  3.81933111E-01  3.90875389E-03 -2.34836320E-03  3.81933111E-01
  3.90875389E-03 -2.34836320E-03  3.81933111E-01  3.90875389E-03 -2.34836320E-03
  3.81933111E-01  3.90875389E-03 -2.34836320E-03  3.81933111E-01  3.90875389E-03
 -2.34836320E-03  3.81933111E-01  3.90875389E-03 -2.34836320E-03  3.81933111E-01
  3.90875389E-03 -2.34836320E-03  3.81933111E-01  3.90875389E-03 -2.34836320E-03
 -3.21788690E+00 -2.06804530E+00  1.16054731E-03 -3.21788690E+00 -2.06804530E+00
  1.16054731E-03 -3.21788690E+00 -2.06804530E+00  1.16054731E-03 -3.21788690E+00
 -2.06804530E+00  1.16054731E-03 -3.21788690E+00 -2.06804530E+00  1.16054731E-03
 -3.27268314E+00  8.76401845E-01 -1.66675025E+00 -3.27268314E+00  8.76401845E-01
 -1.66675025E+00 -3.27268314E+00  8.76401845E-01 -1.66675025E+00 -3.27268314E+00
  8.76401845E-01 -1.66675025E+00 -3.27268314E+00  8.76401845E-01 -1.66675025E+00
 -3.26976620E+00  8.76884631E-01  1.66831300E+00 -3.26976620E+00  8.76884631E-01
  1.66831300E+00 -3.26976620E+00  8.76884631E-01  1.66831300E+00 -3.26976620E+00
  8.76884631E-01  1.66831300E+00 -3.26976620E+00  8.76884631E-01  1.66831300E+00
  1.53794963E+00 -2.09888477E+00  6.06601768E-04  1.53794963E+00 -2.09888477E+00
  6.06601768E-04  1.53794963E+00 -2.09888477E+00  6.06601768E-04  1.53794963E+00
 -2.09888477E+00  6.06601768E-04  1.53794963E+00 -2.09888477E+00  6.06601768E-04
  1.53794963E+00 -2.09888477E+00  6.06601768E-04  1.53794963E+00 -2.09888477E+00
  6.06601768E-04  1.53794963E+00 -2.09888477E+00  6.06601768E-04  1.53794963E+00
 -2.09888477E+00  6.06601768E-04  1.53794963E+00 -2.09888477E+00  6.06601768E-04
  1.30385471E+00  2.22048813E+00  6.00104543E-04  1.30385471E+00  2.22048813E+00
  6.00104543E-04  1.30385471E+00  2.22048813E+00  6.00104543E-04  1.30385471E+00
  2.22048813E+00  6.00104543E-04  1.30385471E+00  2.22048813E+00  6.00104543E-04
  1.30385471E+00  2.22048813E+00  6.00104543E-04  1.30385471E+00  2.22048813E+00
  6.00104543E-04  1.30385471E+00  2.22048813E+00  6.00104543E-04  1.30385471E+00
  2.22048813E+00  6.00104543E-04  1.30385471E+00  2.22048813E+00  6.00104543E-04
Constraint Structure                       R   N=          21
 -2.54428286E+00 -1.13586773E-01  2.85538053E-04  3.81933111E-01  3.90875389E-03
 -2.34836320E-03 -3.21788690E+00 -2.06804530E+00  1.16054731E-03 -3.27268314E+00
  8.76401845E-01 -1.66675025E+00 -3.26976620E+00  8.76884631E-01  1.66831300E+00
  1.53794963E+00 -2.09888477E+00  6.06601768E-04  1.30385471E+00  2.22048813E+00
  6.00104543E-04
Num ILSW                                   I              100
ILSW                                       I   N=         100
           0           0           0           0           2           0
           0           0           0           0           0          -1
           0           0           0           0           0           0
           0           0           0           0           0           0
           1           0           0           0           0           0
           0           0      100000           0          -1           0
           0           0           0           0           0           0
           0           0           0           1           0           0
           0           0           1           0           0           0
           0           0           4          41           0           0
           0           0           0           0           0           0
           0           0           0           7           0           0
           0           0           0           0           0           0
           0           0           0           0           0           0
           0           0           0           0           0           0
           0           0           0           0           0           0
           0           0           0           0
Num RLSW                                   I               41
RLSW                                       R   N=          41
  1.00000000E+00  1.00000000E+00  1.00000000E+00  1.00000000E+00  1.00000000E+00
  0.00000000E+00  0.00000000E+00  1.00000000E+00  0.00000000E+00  0.00000000E+00
  0.00000000E+00  0.00000000E+00  1.00000000E+00  0.00000000E+00  0.00000000E+00
  0.00000000E+00  0.00000000E+00  1.00000000E+00  0.00000000E+00  0.00000000E+00
  0.00000000E+00  0.00000000E+00  1.00000000E+00  0.00000000E+00  0.00000000E+00
  0.00000000E+00  0.00000000E+00  1.00000000E+00  0.00000000E+00  0.00000000E+00
  0.00000000E+00  0.00000000E+00  1.00000000E+00  0.00000000E+00  0.00000000E+00
  0.00000000E+00  0.00000000E+00  0.00000000E+00  1.00000000E+00  1.00000000E+00
  0.00000000E+00
MxBond                                     I                4
NBond                                      I   N=           7
           4           3           1           1           1           1
           1
IBond                                      I   N=          28
           2           3           4           5           1           6
           7           0           1           0           0           0
           1           0           0           0           1           0
           0           0           2           0           0           0
           2           0           0           0
RBond                                      R   N=          28
  1.00000000E+00  1.00000000E+00  1.00000000E+00  1.00000000E+00  1.00000000E+00
  2.00000000E+00  2.00000000E+00  0.00000000E+00  1.00000000E+00  0.00000000E+00
  0.00000000E+00  0.00000000E+00  1.00000000E+00  0.00000000E+00  0.00000000E+00
  0.00000000E+00  1.00000000E+00  0.00000000E+00  0.00000000E+00  0.00000000E+00
  2.00000000E+00  0.00000000E+00  0.00000000E+00  0.00000000E+00  2.00000000E+00
  0.00000000E+00  0.00000000E+00  0.00000000E+00
Virial Ratio                               R      2.001922480787346E+00
SCF Energy                                 R     -2.273058453877448E+02
MP2 Energy                                 R     -2.279871580490071E+02
Total Energy                               R     -2.279871580490071E+02
Post-SCF wavefunction norm                 R      1.104550801828575E+00
RMS Density                                R      8.706184243254743E-09
External E-field                           R   N=          35
  0.00000000E+00  0.00000000E+00 -8.00000000E-04  0.00000000E+00  0.00000000E+00
  0.00000000E+00  0.00000000E+00  0.00000000E+00  0.00000000E+00  0.00000000E+00
  0.00000000E+00  0.00000000E+00  0.00000000E+00  0.00000000E+00  0.00000000E+00
  0.00000000E+00  0.00000000E+00  0.00000000E+00  0.00000000E+00  0.00000000E+00
  0.00000000E+00  0.00000000E+00  0.00000000E+00  0.00000000E+00  0.00000000E+00
  0.00000000E+00  0.00000000E+00  0.00000000E+00  0.00000000E+00  0.00000000E+00
  0.00000000E+00  0.00000000E+00  0.00000000E+00  0.00000000E+00  0.00000000E+00
IOpCl                                      I                0
IROHF                                      I                0
Alpha Orbital Energies                     R   N=         123
 -2.02908452E+01 -2.02868883E+01 -1.11409945E+01 -1.10560092E+01 -1.15338977E+00
 -1.05531971E+00 -7.92924132E-01 -5.12473373E-01 -4.15535719E-01 -4.10952871E-01
 -4.09630948E-01 -3.58001939E-01 -3.12749726E-01 -2.01462016E-01 -1.94157794E-01
 -1.86963276E-01  1.44973712E-01  1.58204346E-01  1.58253043E-01  1.94938268E-01
  2.28458413E-01  2.33430659E-01  2.35330301E-01  2.42679237E-01  2.45457152E-01
  2.84743971E-01  2.98975495E-01  3.10376108E-01  3.15217262E-01  3.58991539E-01
  3.71693259E-01  3.85593874E-01  3.92897610E-01  4.02493685E-01  4.24428935E-01
  4.38076073E-01  4.46666648E-01  4.61056605E-01  4.62729144E-01  4.64729081E-01
  4.98893439E-01  5.17004866E-01  5.34928565E-01  5.37918080E-01  5.43439852E-01
  5.46483560E-01  5.56074799E-01  5.64993140E-01  5.68130927E-01  5.83237452E-01
  5.94880667E-01  6.14581187E-01  6.42981198E-01  6.49794840E-01  6.84478149E-01
  6.95107410E-01  7.47493033E-01  7.53284685E-01  7.79739954E-01  8.47020917E-01
  8.75888565E-01  8.89201728E-01  9.14824091E-01  9.22673437E-01  9.39663368E-01
  9.56527904E-01  9.68787015E-01  9.94879037E-01  1.05535432E+00  1.07348299E+00
  1.09014130E+00  1.10532811E+00  1.13320300E+00  1.14941537E+00  1.16376312E+00
  1.16983343E+00  1.21310481E+00  1.22776286E+00  1.24011128E+00  1.28700757E+00
  1.36121235E+00  1.38797765E+00  1.38909754E+00  1.44741715E+00  1.46934223E+00
  1.58277036E+00  1.58361203E+00  1.63869464E+00  1.64282603E+00  1.73516169E+00
  1.76379722E+00  1.80815807E+00  1.82726148E+00  1.88255123E+00  1.89022635E+00
  1.96185813E+00  2.01081862E+00  2.03735807E+00  2.06179613E+00  2.25643669E+00
  2.29523580E+00  2.45385396E+00  2.47359902E+00  2.54991557E+00  2.61535359E+00
  2.74604205E+00  2.77757644E+00  2.83835075E+00  2.90423855E+00  2.90923434E+00
  2.96396624E+00  3.02374732E+00  3.12291617E+00  3.17860593E+00  3.47514845E+00
  3.51543720E+00  3.67270204E+00  3.75834598E+00  3.89468980E+00  2.29119584E+01
  2.31771518E+01  4.44654213E+01  4.45156549E+01
Alpha MO coefficients                      R   N=       15129
 -5.57603952E-06  3.46101778E-05 -1.19344352E-04  4.66470339E-04 -2.54635845E-04
 -1.52333911E-04 -2.41387974E-06  3.02097504E-07 -3.99047809E-05  1.07245224E-03
  9.64157817E-07 -9.24014274E-04 -2.10549877E-03  1.00911391E-05 -6.34021955E-05
  1.60734963E-07 -5.75750036E-07 -1.57525910E-04  1.53622916E-04  4.19640389E-04
  5.04389837E-06  2.51154199E-06  1.60022580E-04 -1.04174417E-03 -2.41016716E-05
  4.09753120E-05  2.88476899E-04  6.57051438E-03  1.11453514E-03  2.11581886E-04
 -2.41418795E-04  1.00395196E-06  3.92028606E-03 -4.74432769E-03  5.98102676E-06
  5.36017296E-04  2.80884875E-03 -1.08893776E-05  5.42921777E-05  3.54449836E-07
  9.69172324E-07  3.67382682E-04  4.59763252E-04 -1.58687693E-04  6.09555738E-06
  4.17186425E-07 -6.76599303E-04 -9.61002359E-04 -4.14198996E-05  2.04231138E-03
 -1.94143208E-05 -3.87441264E-05 -8.01824168E-05  6.31458702E-08 -3.75990239E-05
  4.97505745E-04  1.45127315E-06  2.86176540E-05 -2.41528616E-04 -3.29108225E-04
  1.16368019E-04 -5.39884096E-05  8.04761176E-06  3.56464693E-04 -1.70753504E-05
 -1.40020577E-04  2.96474439E-05 -2.49755426E-04 -3.26992771E-04  1.15342909E-04
 -5.40030312E-05 -8.00088296E-06  3.52802613E-04 -1.70959264E-05  1.42113442E-04
  4.19176197E-01  6.63535404E-01  1.52471152E-02 -6.23293518E-03 -5.89525332E-03
 -7.27346103E-04  1.32314272E-03 -2.62367962E-06  1.51233395E-03 -3.10471922E-03
  5.01525801E-06  6.16400426E-04 -1.77655847E-03  2.43634648E-06 -1.18648451E-04
  1.68203252E-07 -9.89962617E-09 -1.61254892E-05 -3.97608706E-05  4.69832499E-04
 -1.52374415E-06  2.03658795E-06  6.17497023E-04  7.37726230E-04 -1.85039754E-03
 -2.91735611E-03 -9.32671332E-05 -1.32298184E-04  1.82190593E-03  3.23672059E-05
  6.53729713E-05  2.69427479E-07 -8.17443119E-04  6.22687067E-04 -2.68249454E-06
 -8.16433674E-04 -6.10337618E-04 -2.40838099E-06 -6.70987785E-06  3.49554449E-07
 -1.08688289E-07  8.39599462E-05  5.73059919E-05  1.33151032E-05  1.13624457E-06
  1.54543676E-06  6.45147982E-04  2.79291615E-04 -6.71803323E-06  4.05842512E-05
 -1.98360637E-04  6.22625077E-04  3.60230330E-04 -1.73187457E-04 -4.12984782E-05
  3.20436878E-07  1.18237524E-03 -1.56785540E-03 -9.42447008E-06  2.93673662E-05
  1.62719331E-04  1.56083409E-05 -6.53152728E-07  2.03369379E-07  6.94000319E-07
 -1.27772516E-04 -1.08315825E-04  3.83215998E-04  6.00461787E-06 -3.89716931E-07
  3.93251258E-04 -2.22377573E-04 -2.45141658E-05  4.23312360E-05  3.33855775E-04
  4.92569103E-03 -5.91728499E-04  1.97465724E-04  2.66623646E-04  1.03866066E-06
  3.51514985E-03  5.68690090E-03  4.77497885E-06  5.09281173E-04 -3.87134768E-04
 -1.42621091E-05  9.02426501E-05  2.25550385E-07 -9.65379703E-07  4.71577649E-04
 -3.76706968E-04 -2.26350282E-04  7.83373440E-06  2.24807105E-06 -4.31086089E-04
 -2.31148707E-04 -6.61101935E-05 -6.13514736E-05  5.62948434E-04  5.13391938E-05
  2.81238324E-05  8.19157531E-07 -1.27240521E-04  1.11511621E-04 -4.91477388E-07
 -5.40293737E-06  9.79374131E-04 -2.40636970E-04 -9.75527074E-05  1.97642646E-05
  2.28056768E-05  1.94537723E-04  1.46309642E-04  3.52799899E-04 -5.20360490E-06
  1.01303716E-03 -2.41477702E-04 -9.76909017E-05  1.89009882E-05 -2.23140032E-05
  1.95770889E-04  1.41146798E-04 -3.64310291E-04  1.85059795E-03  2.94168569E-03
  3.10150655E-05 -8.65040954E-05  2.23657250E-03  4.00605117E-05 -5.05178916E-05
  2.28458641E-07 -9.29134797E-04 -5.90485191E-04 -2.57622342E-06 -1.19084669E-03
  4.78298531E-04 -2.48775454E-06 -1.30634579E-05  2.68055239E-07  1.57662233E-07
  8.94634471E-05 -3.39611915E-05  1.34335719E-05  1.73713270E-06 -1.54456666E-06
  6.67170700E-04 -2.58365950E-04  4.19175657E-01  6.63542444E-01  1.51866037E-02
 -5.91340632E-03 -5.63405450E-03 -6.00183433E-04 -1.40487021E-03 -2.60565511E-06
  1.19855080E-03  3.09012971E-03  4.32775854E-06  6.71437279E-04  1.74215758E-03
  6.48294531E-07 -1.11880090E-04  1.94210936E-07  5.55198802E-09 -1.98188605E-05
  4.46518459E-05  4.55434052E-04 -1.34248254E-06 -1.85394413E-06  6.50799883E-04
 -5.98078466E-04  1.41927673E-03  1.95229090E-03  3.21021822E-04 -7.52343012E-04
  2.93647701E-03  2.59000595E-04 -1.11277097E-06 -3.01337024E-07  1.51569832E-03
 -8.36297098E-04  5.83019606E-06  2.44401019E-04  1.11363015E-04 -2.12968845E-05
  5.12229273E-05  3.00425559E-07  1.25697511E-07  4.22591533E-05  1.33110573E-05
 -6.21719508E-04 -8.33831821E-06 -2.49768841E-06  2.31866793E-05 -9.90704477E-05
  4.53535966E-01  6.31405944E-01  1.18855438E-02 -1.76343172E-03 -5.79085849E-03
  7.19614231E-05 -2.29165958E-05 -9.50689551E-07  1.55193323E-03  9.24280058E-05
 -4.81734854E-06  3.52348606E-04  6.75908993E-05  1.61274953E-05 -5.04697681E-04
  1.90226810E-07  1.82223277E-08 -3.47703148E-04 -7.44666063E-05  1.11742656E-03
 -7.70163143E-06  5.98742852E-07 -1.54260881E-04 -1.27514601E-04  4.39451597E-05
 -5.93293068E-04  8.84897587E-05  1.58267928E-05  4.37417304E-05 -6.42371862E-07
  1.30661557E-04 -1.36771521E-04 -1.37795895E-06  1.59014921E-05  2.38578973E-03
 -6.17896539E-05  3.74529104E-05  1.32704144E-05  1.15619571E-04  6.93037349E-04
 -5.44626024E-04  4.12346971E-04  1.55596078E-05  2.35775914E-03 -5.49423217E-05
  3.75573594E-05  1.37943975E-05 -1.15756870E-04  6.89861822E-04 -5.38707668E-04
 -4.03754687E-04 -1.08136787E-04 -2.79393000E-04  4.41872647E-04 -3.73696875E-04
  8.23900667E-04 -2.29281491E-04  4.91367116E-04 -7.42695530E-07  3.22304710E-04
 -6.18169610E-04  3.92210001E-06  4.55544350E-04 -6.00215495E-04  7.09224262E-07
 -8.20965667E-05 -6.21566045E-08 -2.33656423E-07 -1.80385592E-04 -1.76287486E-04
  4.16427913E-04 -1.00637141E-06  3.30686217E-06  3.01297431E-04  5.77603772E-04
 -1.08018244E-04 -2.74413859E-04  4.01415657E-04 -1.96283527E-04  7.85403369E-04
 -1.81004440E-04 -5.24513899E-04 -7.79607665E-07  2.57921225E-04  5.76439301E-04
  3.65445304E-06  7.57454612E-04  5.76688335E-04  5.36787651E-07 -8.86342083E-05
  1.25448841E-08  2.82205812E-07 -2.10736324E-04  1.39910408E-04  3.96529966E-04
 -1.19964234E-06 -3.36259719E-06  3.12709580E-04 -5.34369937E-04  4.53353330E-01
  6.31154285E-01  1.37634514E-02 -1.29444007E-02 -1.12213054E-02 -4.26138359E-04
  1.01377758E-04 -2.12813082E-08 -1.32332135E-04 -6.26366987E-05 -2.35850674E-07
 -8.80276562E-04 -6.21532199E-04 -1.92814002E-06  5.39035274E-05  3.69142679E-07
 -2.14992832E-08 -6.73990422E-05 -3.17719822E-05  1.00387059E-04 -8.83930617E-07
  1.02175033E-07 -2.56684534E-04 -2.24997688E-04 -1.50389523E-03 -2.11767450E-03
  7.85689519E-05  3.62992510E-03  6.98646090E-03 -3.54962524E-04 -2.39095007E-05
  2.97051086E-07 -1.41432660E-03 -7.61640767E-05  3.96370513E-06 -1.83796506E-03
  6.29161398E-04  4.23820579E-06 -1.12778970E-04  9.10739811E-08  1.68330442E-09
  9.63219469E-05  2.14360681E-05 -1.54440647E-04 -2.38974531E-06  2.19902499E-07
  7.41788784E-04 -2.39210333E-04  6.57324703E-04  3.86841636E-03  5.85593956E-04
  3.79376357E-05  2.21308148E-05 -8.86391952E-09  3.21509200E-04  1.25710545E-03
 -4.58677300E-07  5.98787916E-04  3.27598974E-03  5.54898153E-04  2.14937322E-05
  2.60831660E-05 -6.03367055E-05  2.92035626E-04 -5.26949997E-04  8.84609181E-04
  5.99212401E-04  3.27332762E-03  5.54272887E-04  2.16783093E-05  2.59396305E-05
  6.00697291E-05  2.90269963E-04 -5.26679881E-04 -8.83825827E-04  3.17761104E-06
  6.30888078E-06  1.14155924E-05 -2.22538853E-04 -9.59787247E-04  3.05845514E-05
 -1.22854199E-05  6.63323592E-08  2.12436804E-04 -3.07625887E-04  2.53740664E-07
  8.67775170E-05 -6.32967973E-04  3.64153357E-07 -3.68707178E-06 -8.56468399E-08
  1.26890269E-08  1.05532006E-05 -3.69943625E-06  7.54318504E-05  1.33848705E-07
  3.48273629E-07  1.25127911E-04  1.40241895E-04  2.96422755E-06  9.10893548E-06
 -1.20292431E-05 -1.41079643E-04 -5.93741532E-04  3.10389897E-05  1.71792568E-05
  1.08142616E-07  1.56924855E-04  2.98359263E-04 -1.01845908E-07  8.93577284E-05
  3.24718738E-04  3.27551519E-07 -2.54912981E-06 -5.14891034E-08 -3.71535722E-08
  1.67653404E-05  5.95867565E-06  4.59095790E-05  4.13549421E-08 -2.16287993E-07
  1.59656873E-04 -8.96512286E-05 -1.06497262E-02 -2.50100099E-02  5.26274237E-02
 -5.86929041E-02 -2.08173755E-01  3.85746391E-02  1.91772618E-03 -2.20173820E-05
 -2.15887790E-02  2.04890764E-02  7.78158257E-05 -3.84914104E-02  2.07771273E-02
 -3.69112630E-04 -3.72721890E-03 -1.47485724E-05 -1.09487588E-09  1.11322849E-02
  2.75441432E-04 -2.52369944E-02 -1.67325013E-04 -3.84610271E-05 -2.08462768E-02
  2.08821791E-02 -6.01163287E-02 -1.37214936E-01  2.79260065E-01  2.47874197E-01
  2.63599467E-01  9.27445975E-02  1.61193505E-03  2.67986988E-04 -8.59059583E-02
 -1.67306175E-02 -1.45871660E-05 -1.20172308E-01 -4.12298595E-02  4.40285098E-04
 -2.45880780E-02  2.34372193E-05  1.06974126E-07 -3.27485858E-02 -4.06750783E-03
  2.36218758E-02 -2.77495394E-04 -4.02871939E-05  6.49875876E-02  2.32175247E-02
  1.69320468E-02  1.48046339E-02 -3.50721254E-02  2.12139854E-03  5.15521545E-03
 -9.70719260E-06  1.37775994E-02  7.47942060E-03 -3.30007861E-05  1.63536811E-02
  5.20561468E-03 -5.32448085E-03  8.86603690E-04 -1.97498421E-03  2.96503184E-03
 -5.14025663E-03 -3.97115597E-03 -5.70033004E-03  1.63521918E-02  4.90421675E-03
 -5.31991364E-03  8.94217835E-04 -1.96326013E-03 -2.97440685E-03 -5.10363337E-03
 -3.93265877E-03  5.83819240E-03 -5.81714786E-02 -1.48072876E-01  2.98119324E-01
  2.82182272E-01 -3.94958208E-02 -4.69054948E-02  9.50367709E-02 -9.04248618E-05
  1.37079517E-02 -1.29600020E-03  3.45147126E-05  4.58793569E-02 -5.27930063E-02
  5.34443215E-05 -7.20947354E-03  6.44900620E-06 -2.72209415E-05 -8.75489227E-03
 -1.02219486E-02  1.43306874E-02 -2.18312949E-05  6.91575524E-05 -5.75518117E-04
  1.98603621E-02 -5.63888123E-02 -1.43550476E-01  2.89152082E-01  2.71925942E-01
 -2.95942672E-02 -3.50915656E-02 -9.75879072E-02 -8.66545702E-05  9.85008167E-03
  2.03010613E-03  4.10395737E-05  2.99030347E-02  5.64220831E-02  7.34178107E-05
 -7.03156489E-03  2.27573373E-06  2.67516819E-05 -1.06591492E-02  7.81414608E-03
  1.38727350E-02 -7.52453365E-06 -7.06288661E-05  4.48888317E-03 -1.83517050E-02
 -5.71620132E-04 -1.30335097E-03  2.73401549E-03 -2.11452236E-03 -9.82471558E-03
  1.06259977E-03  1.56727493E-02 -5.97124040E-07 -9.64951557E-03  4.27490863E-03
 -7.39157368E-06  3.24145576E-03 -7.95627588E-02 -1.43836056E-04  8.81993298E-05
  3.61009963E-07 -1.31232089E-05 -2.05622379E-04  6.90848414E-03 -5.78075159E-03