 Entering Gaussian System, Link 0=g09
 Input=my.inp
 Output=my.log
 Initial command:
 /opt/g09/l1.exe "/scratch/data/esther/gaussian_scratch/Gau-24660.inp" -scrdir="/scratch/data/esther/gaussian_scratch/"
 Entering Link 1 = /opt/g09/l1.exe PID=     24662.
  
 Copyright (c) 1988,1990,1992,1993,1995,1998,2003,2009,2013,
            Gaussian, Inc.  All Rights Reserved.
  
 This is part of the Gaussian(R) 09 program.  It is based on
 the Gaussian(R) 03 system (copyright 2003, Gaussian, Inc.),
 the Gaussian(R) 98 system (copyright 1998, Gaussian, Inc.),
 the Gaussian(R) 94 system (copyright 1995, Gaussian, Inc.),
 the Gaussian 92(TM) system (copyright 1992, Gaussian, Inc.),
 the Gaussian 90(TM) system (copyright 1990, Gaussian, Inc.),
 the Gaussian 88(TM) system (copyright 1988, Gaussian, Inc.),
 the Gaussian 86(TM) system (copyright 1986, Carnegie Mellon
 University), and the Gaussian 82(TM) system (copyright 1983,
 Carnegie Mellon University). Gaussian is a federally registered
 trademark of Gaussian, Inc.
  
 This software contains proprietary and confidential information,
 including trade secrets, belonging to Gaussian, Inc.
  
 This software is provided under written license and may be
 used, copied, transmitted, or stored only in accord with that
 written license.
  
 The following legend is applicable only to US Government
 contracts under FAR:
  
                    RESTRICTED RIGHTS LEGEND
  
 Use, reproduction and disclosure by the US Government is
 subject to restrictions as set forth in subparagraphs (a)
 and (c) of the Commercial Computer Software - Restricted
 Rights clause in FAR 52.227-19.
  
 Gaussian, Inc.
 340 Quinnipiac St., Bldg. 40, Wallingford CT 06492
  
  
 ---------------------------------------------------------------
 Warning -- This program may not be used in any manner that
 competes with the business of Gaussian, Inc. or will provide
 assistance to any competitor of Gaussian, Inc.  The licensee
 of this program is prohibited from giving any competitor of
 Gaussian, Inc. access to this program.  By using this program,
 the user acknowledges that Gaussian, Inc. is engaged in the
 business of creating and licensing software in the field of
 computational chemistry and represents and warrants to the
 licensee that it is not a competitor of Gaussian, Inc. and that
 it will not use this program in any manner prohibited above.
 ---------------------------------------------------------------
  

 Cite this work as:
 Gaussian 09, Revision D.01,
 M. J. Frisch, G. W. Trucks, H. B. Schlegel, G. E. Scuseria, 
 M. A. Robb, J. R. Cheeseman, G. Scalmani, V. Barone, B. Mennucci, 
 G. A. Petersson, H. Nakatsuji, M. Caricato, X. Li, H. P. Hratchian, 
 A. F. Izmaylov, J. Bloino, G. Zheng, J. L. Sonnenberg, M. Hada, 
 M. Ehara, K. Toyota, R. Fukuda, J. Hasegawa, M. Ishida, T. Nakajima, 
 Y. Honda, O. Kitao, H. Nakai, T. Vreven, J. A. Montgomery, Jr., 
 J. E. Peralta, F. Ogliaro, M. Bearpark, J. J. Heyd, E. Brothers, 
 K. N. Kudin, V. N. Staroverov, T. Keith, R. Kobayashi, J. Normand, 
 K. Raghavachari, A. Rendell, J. C. Burant, S. S. Iyengar, J. Tomasi, 
 M. Cossi, N. Rega, J. M. Millam, M. Klene, J. E. Knox, J. B. Cross, 
 V. Bakken, C. Adamo, J. Jaramillo, R. Gomperts, R. E. Stratmann, 
 O. Yazyev, A. J. Austin, R. Cammi, C. Pomelli, J. W. Ochterski, 
 R. L. Martin, K. Morokuma, V. G. Zakrzewski, G. A. Voth, 
 P. Salvador, J. J. Dannenberg, S. Dapprich, A. D. Daniels, 
 O. Farkas, J. B. Foresman, J. V. Ortiz, J. Cioslowski, 
 and D. J. Fox, Gaussian, Inc., Wallingford CT, 2013.
 
 ******************************************
 Gaussian 09:  ES64L-G09RevD.01 24-Apr-2013
                15-May-2019 
 ******************************************
 %nprocshared=4
 Will use up to    4 processors via shared memory.
 %Chk=my
 --------------------------------------------------------
 #p MP2/Gen SCF=(MAXCYCLE=1000) field=y-8 density=current
 --------------------------------------------------------
 1/30=1,38=1/1;
 2/12=2,17=6,18=5,40=1/2;
 3/5=7,11=9,14=2,15=-8,16=1,25=1,30=1,71=1/1,2,3;
 4//1;
 5/5=2,7=1000,38=5/2;
 8/6=4,10=1/1;
 9/15=1,16=-3/6;
 10/5=1,13=10/2;
 6/7=2,8=2,9=2,10=2,22=-1/1;
 99/5=1,9=1/99;
 Leave Link    1 at Wed May 15 16:45:23 2019, MaxMem=           0 cpu:         0.2
 (Enter /opt/g09/l101.exe)
 -----
 polar
 -----
 Symbolic Z-matrix:
 Charge = -1 Multiplicity = 1
 C                     0.61315   1.29682  -0.00141 
 C                    -0.0545   -0.10173  -0.00109 
 H                    -0.13523   2.09474  -0.00094 
 H                     1.25559   1.39253  -0.88421 
 H                     1.25664   1.39247   0.88063 
 O                    -1.32413  -0.12348   0.0016 
 O                     0.75524  -1.08059   0.00056 
 
 NAtoms=      7 NQM=        7 NQMF=       0 NMMI=      0 NMMIF=      0
                NMic=       0 NMicF=      0.
                    Isotopes and Nuclear Properties:
 (Nuclear quadrupole moments (NQMom) in fm**2, nuclear magnetic moments (NMagM)
  in nuclear magnetons)

  Atom         1           2           3           4           5           6           7
 IAtWgt=          12          12           1           1           1          16          16
 AtmWgt=  12.0000000  12.0000000   1.0078250   1.0078250   1.0078250  15.9949146  15.9949146
 NucSpn=           0           0           1           1           1           0           0
 AtZEff=   0.0000000   0.0000000   0.0000000   0.0000000   0.0000000   0.0000000   0.0000000
 NQMom=    0.0000000   0.0000000   0.0000000   0.0000000   0.0000000   0.0000000   0.0000000
 NMagM=    0.0000000   0.0000000   2.7928460   2.7928460   2.7928460   0.0000000   0.0000000
 AtZNuc=   6.0000000   6.0000000   1.0000000   1.0000000   1.0000000   8.0000000   8.0000000
 Leave Link  101 at Wed May 15 16:45:23 2019, MaxMem=    33554432 cpu:         0.2
 (Enter /opt/g09/l202.exe)
                          Input orientation:                          
 ---------------------------------------------------------------------
 Center     Atomic      Atomic             Coordinates (Angstroms)
 Number     Number       Type             X           Y           Z
 ---------------------------------------------------------------------
      1          6           0        0.613146    1.296818   -0.001409
      2          6           0       -0.054499   -0.101728   -0.001089
      3          1           0       -0.135232    2.094736   -0.000937
      4          1           0        1.255590    1.392531   -0.884205
      5          1           0        1.256638    1.392473    0.880634
      6          8           0       -1.324128   -0.123477    0.001602
      7          8           0        0.755237   -1.080593    0.000555
 ---------------------------------------------------------------------
                    Distance matrix (angstroms):
                    1          2          3          4          5
     1  C    0.000000
     2  C    1.549735   0.000000
     3  H    1.093958   2.197947   0.000000
     4  H    1.096004   2.174635   1.790989   0.000000
     5  H    1.096007   2.174661   1.790989   1.764840   0.000000
     6  O    2.402140   1.269818   2.516733   3.120557   3.119480
     7  O    2.381654   1.270375   3.297826   2.673855   2.672452
                    6          7
     6  O    0.000000
     7  O    2.289068   0.000000
 Stoichiometry    C2H3O2(1-)
 Framework group  C1[X(C2H3O2)]
 Deg. of freedom    15
 Full point group                 C1      NOp   1
 Largest Abelian subgroup         C1      NOp   1
 Largest concise Abelian subgroup C1      NOp   1
                         Standard orientation:                         
 ---------------------------------------------------------------------
 Center     Atomic      Atomic             Coordinates (Angstroms)
 Number     Number       Type             X           Y           Z
 ---------------------------------------------------------------------
      1          6           0       -1.346377   -0.060108    0.000151
      2          6           0        0.202110    0.002068   -0.001243
      3          1           0       -1.702832   -1.094362    0.000614
      4          1           0       -1.731829    0.463772   -0.882006
      5          1           0       -1.730286    0.464027    0.882833
      6          8           0        0.813848   -1.110682    0.000321
      7          8           0        0.689970    1.175032    0.000318
 ---------------------------------------------------------------------
 Rotational constants (GHZ):     11.2167440      9.9969936      5.4653418
 Leave Link  202 at Wed May 15 16:45:23 2019, MaxMem=    33554432 cpu:         0.0
 (Enter /opt/g09/l301.exe)
 General basis read from cards:  (5D, 7F)
 Centers:       1      2
 S 5 1.00
     Exponent=  5.2406353000D+03 Coefficients=  9.3700000000D-04
     Exponent=  7.8220480000D+02 Coefficients=  7.2280000000D-03
     Exponent=  1.7835083000D+02 Coefficients=  3.6344000000D-02
     Exponent=  5.0815942000D+01 Coefficients=  1.3060000000D-01
     Exponent=  1.6823562000D+01 Coefficients=  3.1893100000D-01
 S 2 1.00
     Exponent=  6.1757760000D+00 Coefficients=  4.3874200000D-01
     Exponent=  2.4180490000D+00 Coefficients=  2.1497400000D-01
 S 1 1.00
     Exponent=  5.1190000000D-01 Coefficients=  1.0000000000D+00
 S 1 1.00
     Exponent=  1.5659000000D-01 Coefficients=  1.0000000000D+00
 S 1 1.00
     Exponent=  4.7900000000D-02 Coefficients=  1.0000000000D+00
 P 4 1.00
     Exponent=  1.8841800000D+01 Coefficients=  1.3887000000D-02
     Exponent=  4.1592400000D+00 Coefficients=  8.6279000000D-02
     Exponent=  1.2067100000D+00 Coefficients=  2.8874400000D-01
     Exponent=  3.8554000000D-01 Coefficients=  4.9941100000D-01
 P 1 1.00
     Exponent=  1.2194000000D-01 Coefficients=  1.0000000000D+00
 P 1 1.00
     Exponent=  3.8568000000D-02 Coefficients=  1.0000000000D+00
 D 2 1.00
     Exponent=  1.2067000000D+00 Coefficients=  2.6285000000D-01
     Exponent=  3.8550000000D-01 Coefficients=  8.0430000000D-01
 D 2 1.00
     Exponent=  1.2190000000D-01 Coefficients=  6.5350000000D-01
     Exponent=  3.8600000000D-02 Coefficients=  8.6360000000D-01
 ****
 Centers:       3      4      5
 S 4 1.00
     Exponent=  3.3865014000D+01 Coefficients=  6.0680000000D-03
     Exponent=  5.0947880000D+00 Coefficients=  4.5316000000D-02
     Exponent=  1.1587860000D+00 Coefficients=  2.0284600000D-01
     Exponent=  3.2584000000D-01 Coefficients=  5.0370900000D-01
 S 1 1.00
     Exponent=  1.0274100000D-01 Coefficients=  1.0000000000D+00
 S 1 1.00
     Exponent=  3.2400000000D-02 Coefficients=  1.0000000000D+00
 P 2 1.00
     Exponent=  1.1588000000D+00 Coefficients=  1.8844000000D-01
     Exponent=  3.2580000000D-01 Coefficients=  8.8242000000D-01
 P 2 1.00
     Exponent=  1.0270000000D-01 Coefficients=  1.1780000000D-01
     Exponent=  3.2400000000D-02 Coefficients=  4.2000000000D-03
 ****
 Centers:       6      7
 S 5 1.00
     Exponent=  1.0662285000D+04 Coefficients=  7.9900000000D-04
     Exponent=  1.5997097000D+03 Coefficients=  6.1530000000D-03
     Exponent=  3.6472526000D+02 Coefficients=  3.1157000000D-02
     Exponent=  1.0365179000D+02 Coefficients=  1.1559600000D-01
     Exponent=  3.3905805000D+01 Coefficients=  3.0155200000D-01
 S 2 1.00
     Exponent=  1.2287469000D+01 Coefficients=  4.4487000000D-01
     Exponent=  4.7568050000D+00 Coefficients=  2.4317200000D-01
 S 1 1.00
     Exponent=  1.0042710000D+00 Coefficients=  1.0000000000D+00
 S 1 1.00
     Exponent=  3.0068600000D-01 Coefficients=  1.0000000000D+00
 S 1 1.00
     Exponent=  9.0030000000D-02 Coefficients=  1.0000000000D+00
 P 4 1.00
     Exponent=  3.4856463000D+01 Coefficients=  1.5648000000D-02
     Exponent=  7.8431310000D+00 Coefficients=  9.8197000000D-02
     Exponent=  2.3062490000D+00 Coefficients=  3.0776800000D-01
     Exponent=  7.2316400000D-01 Coefficients=  4.9247000000D-01
 P 1 1.00
     Exponent=  2.1488200000D-01 Coefficients=  1.0000000000D+00
 P 1 1.00
     Exponent=  6.3850000000D-02 Coefficients=  1.0000000000D+00
 D 2 1.00
     Exponent=  2.3062000000D+00 Coefficients=  2.0270000000D-01
     Exponent=  7.2320000000D-01 Coefficients=  5.7910000000D-01
 D 2 1.00
     Exponent=  2.1490000000D-01 Coefficients=  7.8545000000D-01
     Exponent=  6.3900000000D-02 Coefficients=  5.3387000000D-01
 ****
 Ernie: Thresh=  0.10000D-02 Tol=  0.10000D-05 Strict=F.
 The following finite field(s) will be applied:
 An electric field of              0.0000 -0.0008  0.0000
 In input orientation: -7.07544433D-04  3.73337348D-04  3.16590720D-07
 There are   131 symmetry adapted cartesian basis functions of A   symmetry.
 There are   123 symmetry adapted basis functions of A   symmetry.
   123 basis functions,   262 primitive gaussians,   131 cartesian basis functions
    16 alpha electrons       16 beta electrons
       nuclear repulsion energy       111.1233895856 Hartrees.
 IExCor=    0 DFT=F Ex=HF Corr=None ExCW=0 ScaHFX=  1.000000
 ScaDFX=  1.000000  1.000000  1.000000  1.000000 ScalE2=  1.000000  1.000000
 IRadAn=      0 IRanWt=     -1 IRanGd=            0 ICorTp=0 IEmpDi=  4
 NAtoms=    7 NActive=    7 NUniq=    7 SFac= 1.00D+00 NAtFMM=   60 NAOKFM=F Big=F
 Integral buffers will be    131072 words long.
 Raffenetti 1 integral format.
 Two-electron integral symmetry is turned on.
 Leave Link  301 at Wed May 15 16:45:23 2019, MaxMem=    33554432 cpu:         0.2
 (Enter /opt/g09/l302.exe)
 NPDir=0 NMtPBC=     1 NCelOv=     1 NCel=       1 NClECP=     1 NCelD=      1
         NCelK=      1 NCelE2=     1 NClLst=     1 CellRange=     0.0.
 One-electron integrals computed using PRISM.
 NBasis=   123 RedAO= T EigKep=  7.45D-05  NBF=   123
 NBsUse=   123 1.00D-06 EigRej= -1.00D+00 NBFU=   123
 Leave Link  302 at Wed May 15 16:45:23 2019, MaxMem=    33554432 cpu:         0.4
 (Enter /opt/g09/l303.exe)
 DipDrv:  MaxL=1.
 The nuclear repulsion energy is now       111.1233895856 hartrees.
 Leave Link  303 at Wed May 15 16:45:23 2019, MaxMem=    33554432 cpu:         0.1
 (Enter /opt/g09/l401.exe)
 ExpMin= 3.24D-02 ExpMax= 1.07D+04 ExpMxC= 1.60D+03 IAcc=3 IRadAn=         5 AccDes= 0.00D+00
 Harris functional with IExCor=  205 and IRadAn=       5 diagonalized for initial guess.
 HarFok:  IExCor=  205 AccDes= 0.00D+00 IRadAn=         5 IDoV= 1 UseB2=F ITyADJ=14
 ICtDFT=  3500011 ScaDFX=  1.000000  1.000000  1.000000  1.000000
 FoFCou: FMM=F IPFlag=           0 FMFlag=      100000 FMFlg1=           0
         NFxFlg=           0 DoJE=T BraDBF=F KetDBF=T FulRan=T
         wScrn=  0.000000 ICntrl=     500 IOpCl=  0 I1Cent=   200000004 NGrid=           0
         NMat0=    1 NMatS0=      1 NMatT0=    0 NMatD0=    1 NMtDS0=    0 NMtDT0=    0
 Petite list used in FoFCou.
 Harris En= -227.710074439741    
 JPrj=0 DoOrth=F DoCkMO=F.
 Leave Link  401 at Wed May 15 16:45:24 2019, MaxMem=    33554432 cpu:         1.2
 (Enter /opt/g09/l502.exe)
 Closed shell SCF:
 Using DIIS extrapolation, IDIIS=  1040.
 Integral symmetry usage will be decided dynamically.
 Keep R1 ints in memory in canonical form, NReq=31291442.
 IVT=     1059773 IEndB=     1059773 NGot=    33554432 MDV=     3412909
 LenX=     3412909 LenY=     3395307
 Requested convergence on RMS density matrix=1.00D-08 within1000 cycles.
 Requested convergence on MAX density matrix=1.00D-06.
 Requested convergence on             energy=1.00D-06.
 No special actions if energy rises.
 FoFCou: FMM=F IPFlag=           0 FMFlag=           0 FMFlg1=           0
         NFxFlg=           0 DoJE=F BraDBF=F KetDBF=F FulRan=T
         wScrn=  0.000000 ICntrl=     600 IOpCl=  0 I1Cent=           0 NGrid=           0
         NMat0=    1 NMatS0=   7626 NMatT0=    0 NMatD0=    1 NMtDS0=    0 NMtDT0=    0
 Symmetry not used in FoFCou.
 CoulSu:  requested number of processors reduced to:   3 ShMem   1 Linda.

 Cycle   1  Pass 1  IDiag  1:
 E= -227.062524067685    
 DIIS: error= 4.76D-02 at cycle   1 NSaved=   1.
 NSaved= 1 IEnMin= 1 EnMin= -227.062524067685     IErMin= 1 ErrMin= 4.76D-02
 ErrMax= 4.76D-02  0.00D+00 EMaxC= 1.00D-01 BMatC= 4.47D-01 BMatP= 4.47D-01
 IDIUse=3 WtCom= 5.24D-01 WtEn= 4.76D-01
 Coeff-Com:  0.100D+01
 Coeff-En:   0.100D+01
 Coeff:      0.100D+01
 Gap=     0.568 Goal=   None    Shift=    0.000
 GapD=    0.568 DampG=2.000 DampE=0.500 DampFc=1.0000 IDamp=-1.
 RMSDP=1.75D-02 MaxDP=3.91D-01              OVMax= 1.48D-01

 Cycle   2  Pass 1  IDiag  1:
 E= -227.248915850889     Delta-E=       -0.186391783203 Rises=F Damp=F
 DIIS: error= 1.83D-02 at cycle   2 NSaved=   2.
 NSaved= 2 IEnMin= 2 EnMin= -227.248915850889     IErMin= 2 ErrMin= 1.83D-02
 ErrMax= 1.83D-02  0.00D+00 EMaxC= 1.00D-01 BMatC= 7.54D-02 BMatP= 4.47D-01
 IDIUse=3 WtCom= 8.17D-01 WtEn= 1.83D-01
 Coeff-Com:  0.236D+00 0.764D+00
 Coeff-En:   0.000D+00 0.100D+01
 Coeff:      0.193D+00 0.807D+00
 Gap=     0.368 Goal=   None    Shift=    0.000
 RMSDP=3.91D-03 MaxDP=6.23D-02 DE=-1.86D-01 OVMax= 6.65D-02

 Cycle   3  Pass 1  IDiag  1:
 E= -227.299929145766     Delta-E=       -0.051013294877 Rises=F Damp=F
 DIIS: error= 5.32D-03 at cycle   3 NSaved=   3.
 NSaved= 3 IEnMin= 3 EnMin= -227.299929145766     IErMin= 3 ErrMin= 5.32D-03
 ErrMax= 5.32D-03  0.00D+00 EMaxC= 1.00D-01 BMatC= 8.19D-03 BMatP= 7.54D-02
 IDIUse=3 WtCom= 9.47D-01 WtEn= 5.32D-02
 Coeff-Com: -0.834D-02 0.229D+00 0.779D+00
 Coeff-En:   0.000D+00 0.000D+00 0.100D+01
 Coeff:     -0.789D-02 0.217D+00 0.791D+00
 Gap=     0.341 Goal=   None    Shift=    0.000
 RMSDP=9.31D-04 MaxDP=1.98D-02 DE=-5.10D-02 OVMax= 1.89D-02

 Cycle   4  Pass 1  IDiag  1:
 E= -227.305532092413     Delta-E=       -0.005602946647 Rises=F Damp=F
 DIIS: error= 1.39D-03 at cycle   4 NSaved=   4.
 NSaved= 4 IEnMin= 4 EnMin= -227.305532092413     IErMin= 4 ErrMin= 1.39D-03
 ErrMax= 1.39D-03  0.00D+00 EMaxC= 1.00D-01 BMatC= 2.71D-04 BMatP= 8.19D-03
 IDIUse=3 WtCom= 9.86D-01 WtEn= 1.39D-02
 Coeff-Com: -0.751D-02 0.404D-01 0.225D+00 0.742D+00
 Coeff-En:   0.000D+00 0.000D+00 0.000D+00 0.100D+01
 Coeff:     -0.740D-02 0.399D-01 0.222D+00 0.746D+00
 Gap=     0.332 Goal=   None    Shift=    0.000
 RMSDP=2.69D-04 MaxDP=4.90D-03 DE=-5.60D-03 OVMax= 5.19D-03

 Cycle   5  Pass 1  IDiag  1:
 E= -227.305815062053     Delta-E=       -0.000282969639 Rises=F Damp=F
 DIIS: error= 2.88D-04 at cycle   5 NSaved=   5.
 NSaved= 5 IEnMin= 5 EnMin= -227.305815062053     IErMin= 5 ErrMin= 2.88D-04
 ErrMax= 2.88D-04  0.00D+00 EMaxC= 1.00D-01 BMatC= 1.53D-05 BMatP= 2.71D-04
 IDIUse=3 WtCom= 9.97D-01 WtEn= 2.88D-03
 Coeff-Com:  0.190D-02-0.267D-01-0.118D+00-0.939D-01 0.124D+01
 Coeff-En:   0.000D+00 0.000D+00 0.000D+00 0.000D+00 0.100D+01
 Coeff:      0.189D-02-0.266D-01-0.118D+00-0.936D-01 0.124D+01
 Gap=     0.332 Goal=   None    Shift=    0.000
 RMSDP=1.17D-04 MaxDP=2.91D-03 DE=-2.83D-04 OVMax= 2.70D-03

 Cycle   6  Pass 1  IDiag  1:
 E= -227.305844267053     Delta-E=       -0.000029205000 Rises=F Damp=F
 DIIS: error= 4.90D-05 at cycle   6 NSaved=   6.
 NSaved= 6 IEnMin= 6 EnMin= -227.305844267053     IErMin= 6 ErrMin= 4.90D-05
 ErrMax= 4.90D-05  0.00D+00 EMaxC= 1.00D-01 BMatC= 3.89D-07 BMatP= 1.53D-05
 IDIUse=1 WtCom= 1.00D+00 WtEn= 0.00D+00
 Coeff-Com:  0.285D-03-0.812D-03-0.474D-02-0.210D-01-0.589D-01 0.109D+01
 Coeff:      0.285D-03-0.812D-03-0.474D-02-0.210D-01-0.589D-01 0.109D+01
 Gap=     0.332 Goal=   None    Shift=    0.000
 RMSDP=2.08D-05 MaxDP=4.54D-04 DE=-2.92D-05 OVMax= 5.42D-04

 Cycle   7  Pass 1  IDiag  1:
 E= -227.305845277773     Delta-E=       -0.000001010720 Rises=F Damp=F
 DIIS: error= 1.32D-05 at cycle   7 NSaved=   7.
 NSaved= 7 IEnMin= 7 EnMin= -227.305845277773     IErMin= 7 ErrMin= 1.32D-05
 ErrMax= 1.32D-05  0.00D+00 EMaxC= 1.00D-01 BMatC= 5.03D-08 BMatP= 3.89D-07
 IDIUse=1 WtCom= 1.00D+00 WtEn= 0.00D+00
 Coeff-Com: -0.153D-03 0.240D-02 0.103D-01 0.670D-02-0.123D+00 0.143D+00
 Coeff-Com:  0.960D+00
 Coeff:     -0.153D-03 0.240D-02 0.103D-01 0.670D-02-0.123D+00 0.143D+00
 Coeff:      0.960D+00
 Gap=     0.332 Goal=   None    Shift=    0.000
 RMSDP=5.68D-06 MaxDP=1.14D-04 DE=-1.01D-06 OVMax= 1.60D-04

 Cycle   8  Pass 1  IDiag  1:
 E= -227.305845374772     Delta-E=       -0.000000096999 Rises=F Damp=F
 DIIS: error= 4.61D-06 at cycle   8 NSaved=   8.
 NSaved= 8 IEnMin= 8 EnMin= -227.305845374772     IErMin= 8 ErrMin= 4.61D-06
 ErrMax= 4.61D-06  0.00D+00 EMaxC= 1.00D-01 BMatC= 6.96D-09 BMatP= 5.03D-08
 IDIUse=1 WtCom= 1.00D+00 WtEn= 0.00D+00
 Coeff-Com: -0.548D-04 0.588D-03 0.239D-02 0.322D-02-0.198D-01-0.630D-01
 Coeff-Com:  0.180D+00 0.896D+00
 Coeff:     -0.548D-04 0.588D-03 0.239D-02 0.322D-02-0.198D-01-0.630D-01
 Coeff:      0.180D+00 0.896D+00
 Gap=     0.332 Goal=   None    Shift=    0.000
 RMSDP=1.52D-06 MaxDP=3.27D-05 DE=-9.70D-08 OVMax= 4.26D-05

 Cycle   9  Pass 1  IDiag  1:
 E= -227.305845385206     Delta-E=       -0.000000010434 Rises=F Damp=F
 DIIS: error= 2.99D-06 at cycle   9 NSaved=   9.
 NSaved= 9 IEnMin= 9 EnMin= -227.305845385206     IErMin= 9 ErrMin= 2.99D-06
 ErrMax= 2.99D-06  0.00D+00 EMaxC= 1.00D-01 BMatC= 1.08D-09 BMatP= 6.96D-09
 IDIUse=1 WtCom= 1.00D+00 WtEn= 0.00D+00
 Coeff-Com:  0.997D-05-0.215D-03-0.103D-02-0.133D-03 0.142D-01-0.375D-01
 Coeff-Com: -0.109D+00 0.218D+00 0.916D+00
 Coeff:      0.997D-05-0.215D-03-0.103D-02-0.133D-03 0.142D-01-0.375D-01
 Coeff:     -0.109D+00 0.218D+00 0.916D+00
 Gap=     0.332 Goal=   None    Shift=    0.000
 RMSDP=6.60D-07 MaxDP=1.83D-05 DE=-1.04D-08 OVMax= 2.46D-05

 Cycle  10  Pass 1  IDiag  1:
 E= -227.305845387364     Delta-E=       -0.000000002159 Rises=F Damp=F
 DIIS: error= 6.79D-07 at cycle  10 NSaved=  10.
 NSaved=10 IEnMin=10 EnMin= -227.305845387364     IErMin=10 ErrMin= 6.79D-07
 ErrMax= 6.79D-07  0.00D+00 EMaxC= 1.00D-01 BMatC= 1.35D-10 BMatP= 1.08D-09
 IDIUse=1 WtCom= 1.00D+00 WtEn= 0.00D+00
 Coeff-Com:  0.538D-05-0.572D-04-0.228D-03-0.320D-03 0.134D-02 0.116D-01
 Coeff-Com: -0.214D-01-0.144D+00 0.500D-01 0.110D+01
 Coeff:      0.538D-05-0.572D-04-0.228D-03-0.320D-03 0.134D-02 0.116D-01
 Coeff:     -0.214D-01-0.144D+00 0.500D-01 0.110D+01
 Gap=     0.332 Goal=   None    Shift=    0.000
 RMSDP=2.73D-07 MaxDP=6.41D-06 DE=-2.16D-09 OVMax= 8.72D-06

 Cycle  11  Pass 1  IDiag  1:
 E= -227.305845387695     Delta-E=       -0.000000000330 Rises=F Damp=F
 DIIS: error= 2.54D-07 at cycle  11 NSaved=  11.
 NSaved=11 IEnMin=11 EnMin= -227.305845387695     IErMin=11 ErrMin= 2.54D-07
 ErrMax= 2.54D-07  0.00D+00 EMaxC= 1.00D-01 BMatC= 1.12D-11 BMatP= 1.35D-10
 IDIUse=1 WtCom= 1.00D+00 WtEn= 0.00D+00
 Coeff-Com: -0.205D-05 0.347D-04 0.155D-03 0.998D-04-0.180D-02 0.144D-02
 Coeff-Com:  0.167D-01-0.142D-02-0.790D-01-0.308D+00 0.137D+01
 Coeff:     -0.205D-05 0.347D-04 0.155D-03 0.998D-04-0.180D-02 0.144D-02
 Coeff:      0.167D-01-0.142D-02-0.790D-01-0.308D+00 0.137D+01
 Gap=     0.332 Goal=   None    Shift=    0.000
 RMSDP=1.15D-07 MaxDP=3.33D-06 DE=-3.30D-10 OVMax= 5.01D-06

 Cycle  12  Pass 1  IDiag  1:
 E= -227.305845387738     Delta-E=       -0.000000000043 Rises=F Damp=F
 DIIS: error= 7.11D-08 at cycle  12 NSaved=  12.
 NSaved=12 IEnMin=12 EnMin= -227.305845387738     IErMin=12 ErrMin= 7.11D-08
 ErrMax= 7.11D-08  0.00D+00 EMaxC= 1.00D-01 BMatC= 1.08D-12 BMatP= 1.12D-11
 IDIUse=1 WtCom= 1.00D+00 WtEn= 0.00D+00
 Coeff-Com:  0.136D-06-0.592D-05-0.302D-04-0.424D-06 0.503D-03-0.202D-02
 Coeff-Com: -0.215D-02 0.122D-01 0.293D-01-0.114D-01-0.464D+00 0.144D+01
 Coeff:      0.136D-06-0.592D-05-0.302D-04-0.424D-06 0.503D-03-0.202D-02
 Coeff:     -0.215D-02 0.122D-01 0.293D-01-0.114D-01-0.464D+00 0.144D+01
 Gap=     0.332 Goal=   None    Shift=    0.000
 RMSDP=3.79D-08 MaxDP=8.76D-07 DE=-4.30D-11 OVMax= 1.58D-06

 Cycle  13  Pass 1  IDiag  1:
 E= -227.305845387745     Delta-E=       -0.000000000007 Rises=F Damp=F
 DIIS: error= 1.80D-08 at cycle  13 NSaved=  13.
 NSaved=13 IEnMin=13 EnMin= -227.305845387745     IErMin=13 ErrMin= 1.80D-08
 ErrMax= 1.80D-08  0.00D+00 EMaxC= 1.00D-01 BMatC= 6.60D-14 BMatP= 1.08D-12
 IDIUse=1 WtCom= 1.00D+00 WtEn= 0.00D+00
 Coeff-Com:  0.740D-07-0.209D-06 0.184D-05-0.724D-05-0.649D-04 0.597D-03
 Coeff-Com: -0.109D-03-0.462D-02-0.401D-02 0.163D-01 0.896D-01-0.526D+00
 Coeff-Com:  0.143D+01
 Coeff:      0.740D-07-0.209D-06 0.184D-05-0.724D-05-0.649D-04 0.597D-03
 Coeff:     -0.109D-03-0.462D-02-0.401D-02 0.163D-01 0.896D-01-0.526D+00
 Coeff:      0.143D+01
 Gap=     0.332 Goal=   None    Shift=    0.000
 RMSDP=8.71D-09 MaxDP=1.98D-07 DE=-7.16D-12 OVMax= 3.55D-07

 SCF Done:  E(RHF) =  -227.305845388     A.U. after   13 cycles
            NFock= 13  Conv=0.87D-08     -V/T= 2.0019
 KE= 2.268696927622D+02 PE=-7.661715654618D+02 EE= 2.008726377263D+02
 Leave Link  502 at Wed May 15 16:45:25 2019, MaxMem=    33554432 cpu:         3.1
 (Enter /opt/g09/l801.exe)
 ExpMin= 3.24D-02 ExpMax= 1.07D+04 ExpMxC= 1.60D+03 IAcc=3 IRadAn=         5 AccDes= 0.00D+00
 HarFok:  IExCor=  205 AccDes= 0.00D+00 IRadAn=         5 IDoV=-2 UseB2=F ITyADJ=14
 ICtDFT= 12500011 ScaDFX=  1.000000  1.000000  1.000000  1.000000
 Largest valence mixing into a core orbital is  1.59D-04
 Largest core mixing into a valence orbital is  4.31D-05
 Range of M.O.s used for correlation:     5   123
 NBasis=   123 NAE=    16 NBE=    16 NFC=     4 NFV=     0
 NROrb=    119 NOA=    12 NOB=    12 NVA=   107 NVB=   107

 **** Warning!!: The largest alpha MO coefficient is  0.35019752D+02

 Leave Link  801 at Wed May 15 16:45:25 2019, MaxMem=    33554432 cpu:         0.3
 (Enter /opt/g09/l906.exe)
 Frozen-core derivative calculation, NFC=   4 NFV=   0.
 FulOut=F Deriv=T AODrv=F NAtomX=     7
   MMem=          27  MDisk=          12 MDiskD=          12
  W3Min=      257808 MinDsk=      472606 NBas6D=         131
 NBas2D=        8820    NTT=        8646    LW2=     2040000
    MDV=    33331016 MDiskM=        3321 NBas2p=        8805
 Fully direct method using O(ONN) memory.
 IMap=   1   2   3   4   5   6   7   8   9  10  11  12  13  14  15  16
 JobTyp=1 Pass  1:  I=   5 to   5 NPSUse=  4 ParTrn=T ParDer=T DoDerP=T.
 JobTyp=1 Pass  2:  I=   6 to   6 NPSUse=  4 ParTrn=T ParDer=T DoDerP=T.
 JobTyp=1 Pass  3:  I=   7 to   7 NPSUse=  4 ParTrn=T ParDer=T DoDerP=T.
 JobTyp=1 Pass  4:  I=   8 to   8 NPSUse=  4 ParTrn=T ParDer=T DoDerP=T.
 JobTyp=1 Pass  5:  I=   9 to   9 NPSUse=  4 ParTrn=T ParDer=T DoDerP=T.
 JobTyp=1 Pass  6:  I=  10 to  10 NPSUse=  4 ParTrn=T ParDer=T DoDerP=T.
 JobTyp=1 Pass  7:  I=  11 to  11 NPSUse=  4 ParTrn=T ParDer=T DoDerP=T.
 JobTyp=1 Pass  8:  I=  12 to  12 NPSUse=  4 ParTrn=T ParDer=T DoDerP=T.
 JobTyp=1 Pass  9:  I=  13 to  13 NPSUse=  4 ParTrn=T ParDer=T DoDerP=T.
 JobTyp=1 Pass 10:  I=  14 to  14 NPSUse=  4 ParTrn=T ParDer=T DoDerP=T.
 JobTyp=1 Pass 11:  I=  15 to  15 NPSUse=  4 ParTrn=T ParDer=T DoDerP=T.
 JobTyp=1 Pass 12:  I=  16 to  16 NPSUse=  4 ParTrn=T ParDer=T DoDerP=T.
 Spin components of T(2) and E(2):
     alpha-alpha T2 =       0.3021023182D-01 E2=     -0.9172402956D-01
     alpha-beta  T2 =       0.1596120102D+00 E2=     -0.4978646021D+00
     beta-beta   T2 =       0.3021023182D-01 E2=     -0.9172402956D-01
 The integrals were generated  12 times.
 ANorm=    0.1104550802D+01
 E2 =    -0.6813126613D+00 EUMP2 =    -0.22798715804901D+03
 Leave Link  906 at Wed May 15 16:45:46 2019, MaxMem=    33554432 cpu:        85.3
 (Enter /opt/g09/l1002.exe)
 Minotr:  Closed shell wavefunction.
          Computing MP2/KS-MP2 derivatives.
          Using Z-Vector for PSCF gradient.
          Skipping F1 and S1 gradient terms here.
          Frozen-core window.
          Direct CPHF calculation.
          Differentiating once with respect to electric field.
                with respect to dipole field.
          Electric field/nuclear overlap derivatives assumed to be zero.
          Requested convergence is 1.0D-10 RMS, and 1.0D-09 maximum.
          NewPWx=F KeepS1=T KeepF1=T KeepIn=T MapXYZ=F SortEE=F KeepMc=T.
          MDV=      33554253 using IRadAn=       0.
 Keep R1 ints in memory in canonical form, NReq=30232728.
 FoFCou: FMM=F IPFlag=           0 FMFlag=           0 FMFlg1=           0
         NFxFlg=           0 DoJE=F BraDBF=F KetDBF=F FulRan=T
         wScrn=  0.000000 ICntrl=     600 IOpCl=  0 I1Cent=           0 NGrid=           0
         NMat0=    1 NMatS0=   7626 NMatT0=    0 NMatD0=    1 NMtDS0=    0 NMtDT0=    0
 Symmetry not used in FoFCou.
          Solving linear equations separately, MaxMat=       0.
          There are     1 degrees of freedom in the 1st order CPHF.  IDoFFX=0 NUNeed=     1.
 LinEq1:  Iter=  0 NonCon=     1 RMS=7.36D-03 Max=8.15D-02 NDo=     1
 AX will form     1 AO Fock derivatives at one time.
 LinEq1:  Iter=  1 NonCon=     1 RMS=2.17D-03 Max=1.75D-02 NDo=     1
 LinEq1:  Iter=  2 NonCon=     1 RMS=6.79D-04 Max=7.13D-03 NDo=     1
 LinEq1:  Iter=  3 NonCon=     1 RMS=1.08D-04 Max=1.00D-03 NDo=     1
 LinEq1:  Iter=  4 NonCon=     1 RMS=3.42D-05 Max=4.15D-04 NDo=     1
 LinEq1:  Iter=  5 NonCon=     1 RMS=9.50D-06 Max=7.90D-05 NDo=     1
 LinEq1:  Iter=  6 NonCon=     1 RMS=1.77D-06 Max=1.62D-05 NDo=     1
 LinEq1:  Iter=  7 NonCon=     1 RMS=5.50D-07 Max=6.78D-06 NDo=     1
 LinEq1:  Iter=  8 NonCon=     1 RMS=2.20D-07 Max=1.88D-06 NDo=     1
 LinEq1:  Iter=  9 NonCon=     1 RMS=6.23D-08 Max=4.81D-07 NDo=     1
 LinEq1:  Iter= 10 NonCon=     1 RMS=1.89D-08 Max=1.55D-07 NDo=     1
 LinEq1:  Iter= 11 NonCon=     1 RMS=3.20D-09 Max=2.54D-08 NDo=     1
 LinEq1:  Iter= 12 NonCon=     1 RMS=8.61D-10 Max=7.18D-09 NDo=     1
 LinEq1:  Iter= 13 NonCon=     1 RMS=1.98D-10 Max=1.96D-09 NDo=     1
 LinEq1:  Iter= 14 NonCon=     0 RMS=2.76D-11 Max=1.92D-10 NDo=     1
 Linear equations converged to 1.000D-10 1.000D-09 after    14 iterations.
 End of Minotr F.D. properties file   721 does not exist.
 End of Minotr F.D. properties file   722 does not exist.
 End of Minotr F.D. properties file   788 does not exist.
 Leave Link 1002 at Wed May 15 16:45:48 2019, MaxMem=    33554432 cpu:         3.2
 (Enter /opt/g09/l601.exe)
 Copying SCF densities to generalized density rwf, IOpCl= 0 IROHF=0.

 **********************************************************************

            Population analysis using the MP2 density.

 **********************************************************************

 Orbital symmetries:
       Occupied  (A) (A) (A) (A) (A) (A) (A) (A) (A) (A) (A) (A)
                 (A) (A) (A) (A)
       Virtual   (A) (A) (A) (A) (A) (A) (A) (A) (A) (A) (A) (A)
                 (A) (A) (A) (A) (A) (A) (A) (A) (A) (A) (A) (A)
                 (A) (A) (A) (A) (A) (A) (A) (A) (A) (A) (A) (A)
                 (A) (A) (A) (A) (A) (A) (A) (A) (A) (A) (A) (A)
                 (A) (A) (A) (A) (A) (A) (A) (A) (A) (A) (A) (A)
                 (A) (A) (A) (A) (A) (A) (A) (A) (A) (A) (A) (A)
                 (A) (A) (A) (A) (A) (A) (A) (A) (A) (A) (A) (A)
                 (A) (A) (A) (A) (A) (A) (A) (A) (A) (A) (A) (A)
                 (A) (A) (A) (A) (A) (A) (A) (A) (A) (A) (A)
 The electronic state is 1-A.
 Alpha  occ. eigenvalues --  -20.29085 -20.28689 -11.14099 -11.05601  -1.15339
 Alpha  occ. eigenvalues --   -1.05532  -0.79292  -0.51247  -0.41554  -0.41095
 Alpha  occ. eigenvalues --   -0.40963  -0.35800  -0.31275  -0.20146  -0.19416
 Alpha  occ. eigenvalues --   -0.18696
 Alpha virt. eigenvalues --    0.14497   0.15820   0.15825   0.19494   0.22846
 Alpha virt. eigenvalues --    0.23343   0.23533   0.24268   0.24546   0.28474
 Alpha virt. eigenvalues --    0.29898   0.31038   0.31522   0.35899   0.37169
 Alpha virt. eigenvalues --    0.38559   0.39290   0.40249   0.42443   0.43808
 Alpha virt. eigenvalues --    0.44667   0.46106   0.46273   0.46473   0.49889
 Alpha virt. eigenvalues --    0.51700   0.53493   0.53792   0.54344   0.54648
 Alpha virt. eigenvalues --    0.55607   0.56499   0.56813   0.58324   0.59488
 Alpha virt. eigenvalues --    0.61458   0.64298   0.64979   0.68448   0.69511
 Alpha virt. eigenvalues --    0.74749   0.75328   0.77974   0.84702   0.87589
 Alpha virt. eigenvalues --    0.88920   0.91482   0.92267   0.93966   0.95653
 Alpha virt. eigenvalues --    0.96879   0.99488   1.05535   1.07348   1.09014
 Alpha virt. eigenvalues --    1.10533   1.13320   1.14942   1.16376   1.16983
 Alpha virt. eigenvalues --    1.21310   1.22776   1.24011   1.28701   1.36121
 Alpha virt. eigenvalues --    1.38798   1.38910   1.44742   1.46934   1.58277
 Alpha virt. eigenvalues --    1.58361   1.63869   1.64283   1.73516   1.76380
 Alpha virt. eigenvalues --    1.80816   1.82726   1.88255   1.89023   1.96186
 Alpha virt. eigenvalues --    2.01082   2.03736   2.06180   2.25644   2.29524
 Alpha virt. eigenvalues --    2.45385   2.47360   2.54992   2.61535   2.74604
 Alpha virt. eigenvalues --    2.77758   2.83835   2.90424   2.90923   2.96397
 Alpha virt. eigenvalues --    3.02375   3.12292   3.17861   3.47515   3.51544
 Alpha virt. eigenvalues --    3.67270   3.75835   3.89469  22.91196  23.17715
 Alpha virt. eigenvalues --   44.46542  44.51565
          Condensed to atoms (all electrons):
               1          2          3          4          5          6
     1  C    6.782639  -2.056617  -0.902466  -0.553858  -0.551339   0.352698
     2  C   -2.056617   8.761039   0.562791   0.157502   0.157042  -0.472655
     3  H   -0.902466   0.562791   3.605710  -0.725544  -0.725874  -0.050122
     4  H   -0.553858   0.157502  -0.725544   3.327772  -0.507745  -0.054519
     5  H   -0.551339   0.157042  -0.725874  -0.507745   3.326014  -0.054564
     6  O    0.352698  -0.472655  -0.050122  -0.054519  -0.054564   8.865408
     7  O    0.270751  -0.369644  -0.083216   0.002395   0.002134  -0.134583
               7
     1  C    0.270751
     2  C   -0.369644
     3  H   -0.083216
     4  H    0.002395
     5  H    0.002134
     6  O   -0.134583
     7  O    8.806285
 Mulliken charges:
               1
     1  C    2.658193
     2  C   -0.739459
     3  H   -0.681278
     4  H   -0.646003
     5  H   -0.645670
     6  O   -0.451662
     7  O   -0.494121
 Sum of Mulliken charges =  -1.00000
 Mulliken charges with hydrogens summed into heavy atoms:
               1
     1  C    0.685242
     2  C   -0.739459
     6  O   -0.451662
     7  O   -0.494121
 Electronic spatial extent (au):  <R**2>=            262.2304
 Charge=             -1.0000 electrons
 Dipole moment (field-independent basis, Debye):
    X=             -3.7420    Y=             -0.0860    Z=             -0.0013  Tot=              3.7430
 Quadrupole moment (field-independent basis, Debye-Ang):
   XX=            -33.5607   YY=            -36.9341   ZZ=            -26.4767
   XY=              0.1862   XZ=             -0.0023   YZ=              0.0004
 Traceless Quadrupole moment (field-independent basis, Debye-Ang):
   XX=             -1.2368   YY=             -4.6102   ZZ=              5.8471
   XY=              0.1862   XZ=             -0.0023   YZ=              0.0004
 Octapole moment (field-independent basis, Debye-Ang**2):
  XXX=              4.0484  YYY=             -0.8589  ZZZ=              0.0064  XYY=             -5.7297
  XXY=              0.9749  XXZ=              0.0028  XZZ=              0.7780  YZZ=              0.5082
  YYZ=              0.0062  XYZ=             -0.0005
 Hexadecapole moment (field-independent basis, Debye-Ang**3):
 XXXX=           -216.7541 YYYY=           -165.9515 ZZZZ=            -39.5028 XXXY=             -0.5618
 XXXZ=             -0.0039 YYYX=              0.8843 YYYZ=              0.0007 ZZZX=              0.0006
 ZZZY=              0.0020 XXYY=            -62.8435 XXZZ=            -39.3707 YYZZ=            -32.5812
 XXYZ=             -0.0001 YYXZ=              0.0023 ZZXY=             -0.7679
 N-N= 1.111233895856D+02 E-N=-7.657723541176D+02  KE= 2.273814491878D+02
 No NMR shielding tensors so no spin-rotation constants.
 Leave Link  601 at Wed May 15 16:45:48 2019, MaxMem=    33554432 cpu:         0.4
 (Enter /opt/g09/l9999.exe)
 1\1\GINC-RHO\SP\RMP2-FC\Gen\C2H3O2(1-)\ESTHER\15-May-2019\0\\#p MP2/Ge
 n SCF=(MAXCYCLE=1000) field=y-8 density=current\\polar\\-1,1\C,0,0.613
 1460756,1.2968175747,-0.0014086521\C,0,-0.0544987649,-0.1017278937,-0.
 0010885645\H,0,-0.1352324996,2.0947358178,-0.0009365176\H,0,1.25558974
 84,1.392531006,-0.8842054401\H,0,1.2566377172,1.3924730671,0.880634403
 \O,0,-1.3241280581,-0.1234767658,0.0016022929\O,0,0.7552370717,-1.0805
 934429,0.000555232\\Version=ES64L-G09RevD.01\State=1-A\HF=-227.3058454
 \MP2=-227.987158\RMSD=8.706e-09\Dipole=0.6571318,1.3178546,-0.0021557\
 Quadrupole=-2.9956541,-1.3514999,4.3471541,0.9570435,0.0066799,0.00516
 53\PG=C01 [X(C2H3O2)]\\@


 There ain't no surer way to find out whether you
 like people or hate them than to travel with them.
                                     -- Mark Twain
 Job cpu time:       0 days  0 hours  1 minutes 34.6 seconds.
 File lengths (MBytes):  RWF=      8 Int=      0 D2E=      0 Chk=      3 Scr=      1
 Normal termination of Gaussian 09 at Wed May 15 16:45:48 2019.
