polar                                                                   
SP        RMP2-FC                                                     Gen                 
Number of atoms                            I                7
Info1-9                                    I   N=           9
          98          97           0           0           0         110
           1           2           1
Charge                                     I               -1
Multiplicity                               I                1
Number of electrons                        I               32
Number of alpha electrons                  I               16
Number of beta electrons                   I               16
Number of basis functions                  I              123
Number of independent functions            I              123
Number of point charges in /Mol/           I                0
Number of translation vectors              I                0
Atomic numbers                             I   N=           7
           6           6           1           1           1           8
           8
Nuclear charges                            R   N=           7
  6.00000000E+00  6.00000000E+00  1.00000000E+00  1.00000000E+00  1.00000000E+00
  8.00000000E+00  8.00000000E+00
Current cartesian coordinates              R   N=          21
 -2.54428286E+00 -1.13586773E-01  2.85538053E-04  3.81933111E-01  3.90875389E-03
 -2.34836320E-03 -3.21788690E+00 -2.06804530E+00  1.16054731E-03 -3.27268314E+00
  8.76401845E-01 -1.66675025E+00 -3.26976620E+00  8.76884631E-01  1.66831300E+00
  1.53794963E+00 -2.09888477E+00  6.06601768E-04  1.30385471E+00  2.22048813E+00
  6.00104543E-04
Force Field                                I                0
Int Atom Types                             I   N=           7
           0           0           0           0           0           0
           0
MM charges                                 R   N=           7
  0.00000000E+00  0.00000000E+00  0.00000000E+00  0.00000000E+00  0.00000000E+00
  0.00000000E+00  0.00000000E+00
Integer atomic weights                     I   N=           7
          12          12           1           1           1          16
          16
Real atomic weights                        R   N=           7
  1.20000000E+01  1.20000000E+01  1.00782504E+00  1.00782504E+00  1.00782504E+00
  1.59949146E+01  1.59949146E+01
Atom fragment info                         I   N=           7
           0           0           0           0           0           0
           0
Atom residue num                           I   N=           7
           0           0           0           0           0           0
           0
Nuclear spins                              I   N=           7
           0           0           1           1           1           0
           0
Nuclear ZEff                               R   N=           7
 -3.60000000E+00 -3.60000000E+00 -1.00000000E+00 -1.00000000E+00 -1.00000000E+00
 -5.60000000E+00 -5.60000000E+00
Nuclear ZNuc                               R   N=           7
  6.00000000E+00  6.00000000E+00  1.00000000E+00  1.00000000E+00  1.00000000E+00
  8.00000000E+00  8.00000000E+00
Nuclear QMom                               R   N=           7
  0.00000000E+00  0.00000000E+00  0.00000000E+00  0.00000000E+00  0.00000000E+00
  0.00000000E+00  0.00000000E+00
Nuclear GFac                               R   N=           7
  0.00000000E+00  0.00000000E+00  2.79284600E+00  2.79284600E+00  2.79284600E+00
  0.00000000E+00  0.00000000E+00
MicOpt                                     I   N=           7
          -1          -1          -1          -1          -1          -1
          -1
Number of contracted shells                I               55
Number of primitive shells                 I              110
Pure/Cartesian d shells                    I                0
Pure/Cartesian f shells                    I                0
Highest angular momentum                   I                2
Largest degree of contraction              I                5
Shell types                                I   N=          55
           0           0           0           0           0           1
           1           1          -2          -2           0           0
           0           0           0           1           1           1
          -2          -2           0           0           0           1
           1           0           0           0           1           1
           0           0           0           1           1           0
           0           0           0           0           1           1
           1          -2          -2           0           0           0
           0           0           1           1           1          -2
          -2
Number of primitives per shell             I   N=          55
           5           2           1           1           1           4
           1           1           2           2           5           2
           1           1           1           4           1           1
           2           2           4           1           1           2
           2           4           1           1           2           2
           4           1           1           2           2           5
           2           1           1           1           4           1
           1           2           2           5           2           1
           1           1           4           1           1           2
           2
Shell to atom map                          I   N=          55
           1           1           1           1           1           1
           1           1           1           1           2           2
           2           2           2           2           2           2
           2           2           3           3           3           3
           3           4           4           4           4           4
           5           5           5           5           5           6
           6           6           6           6           6           6
           6           6           6           7           7           7
           7           7           7           7           7           7
           7
Primitive exponents                        R   N=         110
  5.24063530E+03  7.82204800E+02  1.78350830E+02  5.08159420E+01  1.68235620E+01
  6.17577600E+00  2.41804900E+00  5.11900000E-01  1.56590000E-01  4.79000000E-02
  1.88418000E+01  4.15924000E+00  1.20671000E+00  3.85540000E-01  1.21940000E-01
  3.85680000E-02  1.20670000E+00  3.85500000E-01  1.21900000E-01  3.86000000E-02
  5.24063530E+03  7.82204800E+02  1.78350830E+02  5.08159420E+01  1.68235620E+01
  6.17577600E+00  2.41804900E+00  5.11900000E-01  1.56590000E-01  4.79000000E-02
  1.88418000E+01  4.15924000E+00  1.20671000E+00  3.85540000E-01  1.21940000E-01
  3.85680000E-02  1.20670000E+00  3.85500000E-01  1.21900000E-01  3.86000000E-02
  3.38650140E+01  5.09478800E+00  1.15878600E+00  3.25840000E-01  1.02741000E-01
  3.24000000E-02  1.15880000E+00  3.25800000E-01  1.02700000E-01  3.24000000E-02
  3.38650140E+01  5.09478800E+00  1.15878600E+00  3.25840000E-01  1.02741000E-01
  3.24000000E-02  1.15880000E+00  3.25800000E-01  1.02700000E-01  3.24000000E-02
  3.38650140E+01  5.09478800E+00  1.15878600E+00  3.25840000E-01  1.02741000E-01
  3.24000000E-02  1.15880000E+00  3.25800000E-01  1.02700000E-01  3.24000000E-02
  1.06622850E+04  1.59970970E+03  3.64725260E+02  1.03651790E+02  3.39058050E+01
  1.22874690E+01  4.75680500E+00  1.00427100E+00  3.00686000E-01  9.00300000E-02
  3.48564630E+01  7.84313100E+00  2.30624900E+00  7.23164000E-01  2.14882000E-01
  6.38500000E-02  2.30620000E+00  7.23200000E-01  2.14900000E-01  6.39000000E-02
  1.06622850E+04  1.59970970E+03  3.64725260E+02  1.03651790E+02  3.39058050E+01
  1.22874690E+01  4.75680500E+00  1.00427100E+00  3.00686000E-01  9.00300000E-02
  3.48564630E+01  7.84313100E+00  2.30624900E+00  7.23164000E-01  2.14882000E-01
  6.38500000E-02  2.30620000E+00  7.23200000E-01  2.14900000E-01  6.39000000E-02
Contraction coefficients                   R   N=         110
  2.06539993E-03  1.59324554E-02  8.01119476E-02  2.87877514E-01  7.03009673E-01
  6.94067370E-01  3.40077856E-01  1.00000000E+00  1.00000000E+00  1.00000000E+00
  1.80615059E-02  1.12214925E-01  3.75541979E-01  6.49536597E-01  1.00000000E+00
  1.00000000E+00  2.67978866E-01  8.19993920E-01  4.83796365E-01  6.39336711E-01
  2.06539993E-03  1.59324554E-02  8.01119476E-02  2.87877514E-01  7.03009673E-01
  6.94067370E-01  3.40077856E-01  1.00000000E+00  1.00000000E+00  1.00000000E+00
  1.80615059E-02  1.12214925E-01  3.75541979E-01  6.49536597E-01  1.00000000E+00
  1.00000000E+00  2.67978866E-01  8.19993920E-01  4.83796365E-01  6.39336711E-01
  8.76044950E-03  6.54232910E-02  2.92851374E-01  7.27211150E-01  1.00000000E+00
  1.00000000E+00  1.86447366E-01  8.73088966E-01  9.76214574E-01  3.48056130E-02
  8.76044950E-03  6.54232910E-02  2.92851374E-01  7.27211150E-01  1.00000000E+00
  1.00000000E+00  1.86447366E-01  8.73088966E-01  9.76214574E-01  3.48056130E-02
  8.76044950E-03  6.54232910E-02  2.92851374E-01  7.27211150E-01  1.00000000E+00
  1.00000000E+00  1.86447366E-01  8.73088966E-01  9.76214574E-01  3.48056130E-02
  1.90604745E-03  1.46782352E-02  7.43263084E-02  2.75759025E-01  7.19364732E-01
  6.69996511E-01  3.66229217E-01  1.00000000E+00  1.00000000E+00  1.00000000E+00
  1.99439284E-02  1.25155543E-01  3.92261182E-01  6.27670401E-01  1.00000000E+00
  1.00000000E+00  2.83613619E-01  8.10264660E-01  6.73833443E-01  4.58004278E-01
  1.90604745E-03  1.46782352E-02  7.43263084E-02  2.75759025E-01  7.19364732E-01
  6.69996511E-01  3.66229217E-01  1.00000000E+00  1.00000000E+00  1.00000000E+00
  1.99439284E-02  1.25155543E-01  3.92261182E-01  6.27670401E-01  1.00000000E+00
  1.00000000E+00  2.83613619E-01  8.10264660E-01  6.73833443E-01  4.58004278E-01
Coordinates of each shell                  R   N=         165
 -2.54428286E+00 -1.13586773E-01  2.85538053E-04 -2.54428286E+00 -1.13586773E-01
  2.85538053E-04 -2.54428286E+00 -1.13586773E-01  2.85538053E-04 -2.54428286E+00
 -1.13586773E-01  2.85538053E-04 -2.54428286E+00 -1.13586773E-01  2.85538053E-04
 -2.54428286E+00 -1.13586773E-01  2.85538053E-04 -2.54428286E+00 -1.13586773E-01
  2.85538053E-04 -2.54428286E+00 -1.13586773E-01  2.85538053E-04 -2.54428286E+00
 -1.13586773E-01  2.85538053E-04 -2.54428286E+00 -1.13586773E-01  2.85538053E-04
  3.81933111E-01  3.90875389E-03 -2.34836320E-03  3.81933111E-01  3.90875389E-03
 -2.34836320E-03  3.81933111E-01  3.90875389E-03 -2.34836320E-03  3.81933111E-01
  3.90875389E-03 -2.34836320E-03  3.81933111E-01  3.90875389E-03 -2.34836320E-03
  3.81933111E-01  3.90875389E-03 -2.34836320E-03  3.81933111E-01  3.90875389E-03
 -2.34836320E-03  3.81933111E-01  3.90875389E-03 -2.34836320E-03  3.81933111E-01
  3.90875389E-03 -2.34836320E-03  3.81933111E-01  3.90875389E-03 -2.34836320E-03
 -3.21788690E+00 -2.06804530E+00  1.16054731E-03 -3.21788690E+00 -2.06804530E+00
  1.16054731E-03 -3.21788690E+00 -2.06804530E+00  1.16054731E-03 -3.21788690E+00
 -2.06804530E+00  1.16054731E-03 -3.21788690E+00 -2.06804530E+00  1.16054731E-03
 -3.27268314E+00  8.76401845E-01 -1.66675025E+00 -3.27268314E+00  8.76401845E-01
 -1.66675025E+00 -3.27268314E+00  8.76401845E-01 -1.66675025E+00 -3.27268314E+00
  8.76401845E-01 -1.66675025E+00 -3.27268314E+00  8.76401845E-01 -1.66675025E+00
 -3.26976620E+00  8.76884631E-01  1.66831300E+00 -3.26976620E+00  8.76884631E-01
  1.66831300E+00 -3.26976620E+00  8.76884631E-01  1.66831300E+00 -3.26976620E+00
  8.76884631E-01  1.66831300E+00 -3.26976620E+00  8.76884631E-01  1.66831300E+00
  1.53794963E+00 -2.09888477E+00  6.06601768E-04  1.53794963E+00 -2.09888477E+00
  6.06601768E-04  1.53794963E+00 -2.09888477E+00  6.06601768E-04  1.53794963E+00
 -2.09888477E+00  6.06601768E-04  1.53794963E+00 -2.09888477E+00  6.06601768E-04
  1.53794963E+00 -2.09888477E+00  6.06601768E-04  1.53794963E+00 -2.09888477E+00
  6.06601768E-04  1.53794963E+00 -2.09888477E+00  6.06601768E-04  1.53794963E+00
 -2.09888477E+00  6.06601768E-04  1.53794963E+00 -2.09888477E+00  6.06601768E-04
  1.30385471E+00  2.22048813E+00  6.00104543E-04  1.30385471E+00  2.22048813E+00
  6.00104543E-04  1.30385471E+00  2.22048813E+00  6.00104543E-04  1.30385471E+00
  2.22048813E+00  6.00104543E-04  1.30385471E+00  2.22048813E+00  6.00104543E-04
  1.30385471E+00  2.22048813E+00  6.00104543E-04  1.30385471E+00  2.22048813E+00
  6.00104543E-04  1.30385471E+00  2.22048813E+00  6.00104543E-04  1.30385471E+00
  2.22048813E+00  6.00104543E-04  1.30385471E+00  2.22048813E+00  6.00104543E-04
Constraint Structure                       R   N=          21
 -2.54428286E+00 -1.13586773E-01  2.85538053E-04  3.81933111E-01  3.90875389E-03
 -2.34836320E-03 -3.21788690E+00 -2.06804530E+00  1.16054731E-03 -3.27268314E+00
  8.76401845E-01 -1.66675025E+00 -3.26976620E+00  8.76884631E-01  1.66831300E+00
  1.53794963E+00 -2.09888477E+00  6.06601768E-04  1.30385471E+00  2.22048813E+00
  6.00104543E-04
Num ILSW                                   I              100
ILSW                                       I   N=         100
           0           0           0           0           2           0
           0           0           0           0           0          -1
           0           0           0           0           0           0
           0           0           0           0           0           0
           1           0           0           0           0           0
           0           0      100000           0          -1           0
           0           0           0           0           0           0
           0           0           0           1           0           0
           0           0           1           0           0           0
           0           0           4          41           0           0
           0           0           0           0           0           0
           0           0           0           7           0           0
           0           0           0           0           0           0
           0           0           0           0           0           0
           0           0           0           0           0           0
           0           0           0           0           0           0
           0           0           0           0
Num RLSW                                   I               41
RLSW                                       R   N=          41
  1.00000000E+00  1.00000000E+00  1.00000000E+00  1.00000000E+00  1.00000000E+00
  0.00000000E+00  0.00000000E+00  1.00000000E+00  0.00000000E+00  0.00000000E+00
  0.00000000E+00  0.00000000E+00  1.00000000E+00  0.00000000E+00  0.00000000E+00
  0.00000000E+00  0.00000000E+00  1.00000000E+00  0.00000000E+00  0.00000000E+00
  0.00000000E+00  0.00000000E+00  1.00000000E+00  0.00000000E+00  0.00000000E+00
  0.00000000E+00  0.00000000E+00  1.00000000E+00  0.00000000E+00  0.00000000E+00
  0.00000000E+00  0.00000000E+00  1.00000000E+00  0.00000000E+00  0.00000000E+00
  0.00000000E+00  0.00000000E+00  0.00000000E+00  1.00000000E+00  1.00000000E+00
  0.00000000E+00
MxBond                                     I                4
NBond                                      I   N=           7
           4           3           1           1           1           1
           1
IBond                                      I   N=          28
           2           3           4           5           1           6
           7           0           1           0           0           0
           1           0           0           0           1           0
           0           0           2           0           0           0
           2           0           0           0
RBond                                      R   N=          28
  1.00000000E+00  1.00000000E+00  1.00000000E+00  1.00000000E+00  1.00000000E+00
  2.00000000E+00  2.00000000E+00  0.00000000E+00  1.00000000E+00  0.00000000E+00
  0.00000000E+00  0.00000000E+00  1.00000000E+00  0.00000000E+00  0.00000000E+00
  0.00000000E+00  1.00000000E+00  0.00000000E+00  0.00000000E+00  0.00000000E+00
  2.00000000E+00  0.00000000E+00  0.00000000E+00  0.00000000E+00  2.00000000E+00
  0.00000000E+00  0.00000000E+00  0.00000000E+00
Virial Ratio                               R      2.001922663341974E+00
SCF Energy                                 R     -2.273059063566017E+02
MP2 Energy                                 R     -2.279872126939824E+02
Total Energy                               R     -2.279872126939824E+02
Post-SCF wavefunction norm                 R      1.104549341274778E+00
RMS Density                                R      8.408941685581808E-09
External E-field                           R   N=          35
  0.00000000E+00  0.00000000E+00  0.00000000E+00 -8.00000000E-04  0.00000000E+00
  0.00000000E+00  0.00000000E+00  0.00000000E+00  0.00000000E+00  0.00000000E+00
  0.00000000E+00  0.00000000E+00  0.00000000E+00  0.00000000E+00  0.00000000E+00
  0.00000000E+00  0.00000000E+00  0.00000000E+00  0.00000000E+00  0.00000000E+00
  0.00000000E+00  0.00000000E+00  0.00000000E+00  0.00000000E+00  0.00000000E+00
  0.00000000E+00  0.00000000E+00  0.00000000E+00  0.00000000E+00  0.00000000E+00
  0.00000000E+00  0.00000000E+00  0.00000000E+00  0.00000000E+00  0.00000000E+00
IOpCl                                      I                0
IROHF                                      I                0
Alpha Orbital Energies                     R   N=         123
 -2.02903658E+01 -2.02874298E+01 -1.11409987E+01 -1.10559547E+01 -1.15340278E+00
 -1.05535650E+00 -7.92880265E-01 -5.12462880E-01 -4.15479650E-01 -4.10906146E-01
 -4.09698924E-01 -3.57937352E-01 -3.12768993E-01 -2.01379966E-01 -1.94289114E-01
 -1.87017380E-01  1.44992165E-01  1.57031070E-01  1.60002313E-01  1.94877508E-01
  2.28007441E-01  2.34004143E-01  2.35866908E-01  2.42991301E-01  2.44253385E-01
  2.84663687E-01  2.98943501E-01  3.10147391E-01  3.15922589E-01  3.59019831E-01
  3.71815489E-01  3.85536241E-01  3.92659175E-01  4.02510417E-01  4.24241315E-01
  4.38468367E-01  4.46877444E-01  4.61157246E-01  4.62895851E-01  4.64348769E-01
  4.99142804E-01  5.16564119E-01  5.35663891E-01  5.37290756E-01  5.43654182E-01
  5.46435816E-01  5.55793011E-01  5.65377001E-01  5.67687482E-01  5.82889723E-01
  5.95344360E-01  6.14656769E-01  6.42876160E-01  6.49889225E-01  6.85134818E-01
  6.94968047E-01  7.47634004E-01  7.53341750E-01  7.79982921E-01  8.47139401E-01
  8.75440218E-01  8.89169195E-01  9.15069962E-01  9.22839923E-01  9.40188749E-01
  9.56162747E-01  9.68149305E-01  9.95329851E-01  1.05592298E+00  1.07362535E+00
  1.08998357E+00  1.10482719E+00  1.13367219E+00  1.14894709E+00  1.16384880E+00
  1.16988737E+00  1.21339048E+00  1.22765255E+00  1.23942945E+00  1.28719098E+00
  1.36099466E+00  1.38792645E+00  1.38942274E+00  1.44745866E+00  1.46939989E+00
  1.58266294E+00  1.58327645E+00  1.63923779E+00  1.64274448E+00  1.73543387E+00
  1.76398134E+00  1.80790258E+00  1.82716422E+00  1.88250675E+00  1.89034748E+00
  1.96208264E+00  2.01068464E+00  2.03705424E+00  2.06212026E+00  2.25638649E+00
  2.29529629E+00  2.45389901E+00  2.47360871E+00  2.54993954E+00  2.61536399E+00
  2.74636467E+00  2.77738124E+00  2.83823529E+00  2.90426217E+00  2.90947567E+00
  2.96401210E+00  3.02349360E+00  3.12286216E+00  3.17863772E+00  3.47508097E+00
  3.51544858E+00  3.67270618E+00  3.75828349E+00  3.89465283E+00  2.29119670E+01
  2.31771944E+01  4.44648866E+01  4.45161291E+01
Alpha MO coefficients                      R   N=       15129
 -5.57072573E-06  3.45815635E-05 -1.19350300E-04  4.65833591E-04 -2.67154309E-04
 -1.52183342E-04 -2.33251476E-06  2.97707581E-07 -3.60308164E-05  1.07452574E-03
  1.24245194E-06 -9.20483454E-04 -2.10702906E-03  6.43928774E-06 -6.34931217E-05
  2.22503355E-07 -5.34772818E-07 -1.57329163E-04  1.53976413E-04  4.17257696E-04
  3.75014346E-06  1.40746357E-06  1.60664693E-04 -1.04177454E-03 -2.40964155E-05
  4.10396165E-05  2.88096251E-04  6.56183172E-03  1.12602102E-03  2.11167334E-04
 -2.41487113E-04  9.59988843E-07  3.92203952E-03 -4.75228299E-03  4.29029798E-06
  5.28752700E-04  2.81195143E-03 -7.57577119E-06  5.49711916E-05  3.72261808E-07
  7.52025397E-07  3.67282699E-04  4.61412108E-04 -1.58832071E-04  4.31214515E-06
  1.50921168E-06 -6.72281492E-04 -9.59782855E-04 -4.14813756E-05  2.04442515E-03
 -1.97520796E-05 -3.88473900E-05 -8.02748576E-05  1.39364896E-08 -3.75709197E-05
  4.98153319E-04  8.52728704E-07  2.87299546E-05 -2.40415324E-04 -3.27895334E-04
  1.16363396E-04 -5.40460415E-05  8.02792630E-06  3.55714951E-04 -1.82646242E-05
 -1.39955874E-04  2.96689765E-05 -2.48918681E-04 -3.24839399E-04  1.15499670E-04
 -5.40633803E-05 -8.04698416E-06  3.52349652E-04 -1.75695703E-05  1.42349212E-04
  4.19173307E-01  6.63530593E-01  1.52444812E-02 -6.22899201E-03 -5.90916579E-03
 -7.27560504E-04  1.32726247E-03 -5.43485518E-06  1.51290206E-03 -3.10727737E-03
  6.96579975E-06  6.19963087E-04 -1.78238397E-03  2.93679442E-06 -1.19645937E-04
  2.91945600E-07 -2.45342520E-07 -1.65097875E-05 -3.97717009E-05  4.71174990E-04
 -1.73528076E-06  2.72113074E-06  6.17911664E-04  7.38381998E-04 -2.49389103E-03
 -3.93597202E-03 -1.16672535E-04 -1.23525558E-04  1.82919366E-03  3.32937031E-05
  6.75813728E-05  2.54709689E-07 -8.20675170E-04  6.18130441E-04 -2.11421147E-06
 -8.18134653E-04 -6.13273206E-04 -2.61640320E-06 -6.58775089E-06  3.15653934E-07
 -1.26838630E-07  8.41242911E-05  5.73364502E-05  1.21134632E-05  1.14347638E-06
  1.10175827E-06  6.44006730E-04  2.80845494E-04 -6.72058890E-06  4.05947394E-05
 -1.98210898E-04  6.23185457E-04  3.71628434E-04 -1.73323679E-04 -4.12641060E-05
  3.24700823E-07  1.17777873E-03 -1.56493580E-03 -7.61105950E-06  2.53376584E-05
  1.60356613E-04  1.10055792E-05 -6.28752368E-07  2.33540538E-07  6.22731920E-07
 -1.28017570E-04 -1.07943974E-04  3.85497510E-04  4.24733578E-06  3.92995541E-08
  3.92500628E-04 -2.24440023E-04 -2.45165100E-05  4.22612432E-05  3.34183003E-04
  4.93559803E-03 -6.00471556E-04  1.97924553E-04  2.66600231E-04  9.66144139E-07
  3.51471573E-03  5.67845116E-03  3.16315814E-06  5.15647454E-04 -3.81242011E-04
 -1.00827338E-05  8.95208724E-05  2.39317880E-07 -7.34070525E-07  4.71227514E-04
 -3.75059292E-04 -2.26264229E-04  5.72801421E-06  1.11195076E-06 -4.35459481E-04
 -2.31123374E-04 -6.61128533E-05 -5.79097031E-05  5.63020651E-04  5.12973514E-05
  2.79611961E-05  6.35533409E-07 -1.26863825E-04  1.12107404E-04 -3.00597292E-07
 -5.36211839E-06  9.79532304E-04 -2.42684292E-04 -9.74856319E-05  1.96205305E-05
  2.27819277E-05  1.95269664E-04  1.46160557E-04  3.53294364E-04 -5.17869307E-06
  1.00475540E-03 -2.43133028E-04 -9.75239032E-05  1.89331811E-05 -2.22965313E-05
  1.96037921E-04  1.42135902E-04 -3.62076384E-04  2.49409785E-03  3.96029482E-03
  5.44948962E-05 -9.57166694E-05  2.22801648E-03  3.89148984E-05 -4.83870755E-05
  1.73107131E-07 -9.25239443E-04 -5.94982629E-04 -1.94225297E-06 -1.18851482E-03
  4.75342613E-04 -2.58844603E-06 -1.32104794E-05  2.34666238E-07  1.62772176E-07
  8.92812782E-05 -3.39321570E-05  1.47366372E-05  1.71140604E-06 -1.03065976E-06
  6.67951274E-04 -2.56624010E-04  4.19171858E-01  6.63536690E-01  1.51890534E-02
 -5.91732385E-03 -5.62034738E-03 -5.99937797E-04 -1.40068591E-03 -5.45592469E-06
  1.19790196E-03  3.08760089E-03  6.33662418E-06  6.68309813E-04  1.73606888E-03
  1.21989218E-06 -1.10882634E-04  2.80946880E-07  2.48022812E-07 -1.94507163E-05
  4.47048060E-05  4.54035025E-04 -1.50150700E-06 -2.57892734E-06  6.50388020E-04
 -5.97449744E-04  1.41830596E-03  1.95095474E-03  3.20752012E-04 -7.52435411E-04
  2.93203608E-03  2.59074615E-04 -1.03376383E-06 -4.25255589E-07  1.51746415E-03
 -8.40298122E-04  5.95527248E-06  2.45735004E-04  9.97606434E-05 -2.00353892E-05
  5.12350045E-05  1.97018736E-07  1.32309663E-07  4.23589794E-05  1.33858796E-05
 -6.22028071E-04 -7.91037119E-06 -2.37246567E-06  2.40871644E-05 -1.03399362E-04
  4.53535961E-01  6.31405905E-01  1.18858774E-02 -1.76056698E-03 -5.78889889E-03
  7.18659489E-05 -3.04462433E-06 -1.49746497E-06  1.55172148E-03  1.21076238E-04
 -5.28665362E-06  3.50801944E-04  7.02297575E-05  1.48621852E-05 -5.04823856E-04
  8.03587769E-08 -6.15881357E-09 -3.48100367E-04 -7.17113629E-05  1.11754010E-03
 -7.27556699E-06  5.61593675E-07 -1.51685149E-04 -1.42594198E-04  4.42442054E-05
 -5.90117369E-04  9.20028462E-05  1.59802655E-05  4.38224186E-05 -6.17667602E-07
  1.30046504E-04 -1.34923770E-04 -1.40088470E-06  1.56168067E-05  2.38572141E-03
 -6.29136931E-05  3.72045807E-05  1.30919646E-05  1.15634287E-04  6.93291770E-04
 -5.43456789E-04  4.11756984E-04  1.53155747E-05  2.35835071E-03 -5.62244435E-05
  3.73438349E-05  1.36050180E-05 -1.15771983E-04  6.90102923E-04 -5.37729738E-04
 -4.03517471E-04 -1.08173299E-04 -2.79250997E-04  4.39047606E-04 -3.63872018E-04
  8.64125149E-04 -2.29422119E-04  4.92022057E-04 -7.23671293E-07  3.11378092E-04
 -6.03710602E-04  3.86486643E-06  4.41216774E-04 -5.83751927E-04  7.62604189E-07
 -8.28697639E-05 -4.29478068E-08 -2.78483621E-07 -1.81415379E-04 -1.77935565E-04
  4.11233186E-04 -9.82859219E-07  3.23550128E-06  2.98451959E-04  5.71234223E-04
 -1.07981586E-04 -2.74592491E-04  4.04605811E-04 -2.07356274E-04  7.42135996E-04
 -1.80918080E-04 -5.23845142E-04 -7.55422619E-07  2.67553338E-04  5.94092691E-04
  3.67721729E-06  7.70191831E-04  5.96841505E-04  6.67198451E-07 -8.77656129E-05
  2.56953872E-08  3.14256794E-07 -2.09257196E-04  1.38473850E-04  4.02254448E-04
 -1.20104831E-06 -3.34456200E-06  3.17573164E-04 -5.40536213E-04  4.53353351E-01
  6.31154318E-01  1.37633105E-02 -1.29447664E-02 -1.12193411E-02 -4.25793242E-04
  1.12494606E-04 -1.14606230E-05 -1.32823811E-04 -7.37517329E-05  7.84362532E-06
 -8.79397716E-04 -6.26910652E-04  4.18500648E-06  5.47206775E-05  1.18859910E-06
 -1.13008351E-06 -6.68286552E-05 -3.22444050E-05  1.00211499E-04 -9.01947909E-07
  1.91913006E-07 -2.56269451E-04 -2.25497049E-04 -1.50293051E-03 -2.11631062E-03
  7.85629224E-05  3.62927292E-03  6.98274495E-03 -3.54965785E-04 -2.38446512E-05
  4.06000043E-07 -1.41529274E-03 -7.28378003E-05  1.65008253E-06 -1.83851090E-03
  6.31257284E-04  2.59793436E-06 -1.12704646E-04 -1.08934032E-07  8.98758437E-08
  9.61017105E-05  2.19122808E-05 -1.53807749E-04 -7.86671826E-07  3.22145382E-07
  7.42164516E-04 -2.40662878E-04  6.61415838E-04  3.85985901E-03  5.80611342E-04
  3.96713018E-05  2.70278405E-05  2.75108218E-07  3.20650671E-04  1.25340884E-03
 -2.83786445E-06  5.93072333E-04  3.28457831E-03  5.63248804E-04  1.89758911E-05
  2.96102100E-05 -6.59446842E-05  2.93845052E-04 -5.28228562E-04  8.87755965E-04
  6.01258896E-04  3.27333779E-03  5.51189140E-04  2.24016943E-05  2.47794757E-05
  5.83683109E-05  2.90389509E-04 -5.23805719E-04 -8.85285046E-04  3.17119712E-06
  6.30671268E-06  1.12838103E-05 -2.21253218E-04 -9.57648947E-04  3.04690581E-05
 -1.22435437E-05  8.92820962E-08  2.12541931E-04 -3.06973521E-04  7.43697087E-07
  8.78084991E-05 -6.32384117E-04  2.98816787E-07 -3.71600082E-06 -6.65499161E-08
  6.97024723E-08  1.05357044E-05 -3.67989612E-06  7.56338132E-05 -2.22959428E-07
  4.90278379E-07  1.24199050E-04  1.40440048E-04  2.97032049E-06  9.13227234E-06
 -1.20616918E-05 -1.41757571E-04 -5.93448047E-04  3.11873558E-05  1.72832536E-05
  1.48511305E-07  1.56681963E-04  2.98446344E-04  1.53062125E-07  8.94143965E-05
  3.25344674E-04 -6.59579884E-08 -2.52461040E-06 -9.10025445E-08 -5.39934282E-08
  1.67834463E-05  5.97091767E-06  4.55960417E-05  2.77526375E-07 -3.14526463E-07
  1.60213806E-04 -8.94277438E-05 -1.06494470E-02 -2.50093592E-02  5.26275910E-02
 -5.87001567E-02 -2.08191511E-01  3.85745697E-02  2.01157544E-03 -4.17115136E-05
 -2.16534626E-02  2.06148286E-02  3.25237702E-05 -3.84840797E-02  2.04056450E-02
 -3.30237994E-04 -3.72720683E-03 -1.95788338E-05  5.48636772E-07  1.11300212E-02
  3.22165017E-04 -2.52395787E-02 -1.08632036E-04 -5.19017726E-05 -2.08256036E-02
  2.07022830E-02 -6.01191952E-02 -1.37221526E-01  2.79271568E-01  2.47962972E-01
  2.63547572E-01  9.26714903E-02  3.17615675E-03  2.08928176E-04 -8.59186718E-02
 -1.68247546E-02 -8.41021565E-05 -1.20155863E-01 -4.11001393E-02  3.24439828E-04
 -2.45911131E-02  1.82841212E-05 -4.44439257E-07 -3.27773606E-02 -3.80915303E-03
  2.36332973E-02 -2.16771723E-04 -4.50071834E-05  6.50129978E-02  2.27213761E-02
  1.68846442E-02  1.51284862E-02 -3.49167643E-02  2.12032346E-03  5.14719322E-03
 -1.17745578E-05  1.37910139E-02  7.56743691E-03 -3.60115793E-05  1.63924182E-02
  4.93055133E-03 -5.51971578E-03  8.97993497E-04 -1.97691747E-03  2.96563120E-03
 -5.14146570E-03 -3.93220930E-03 -5.80210139E-03  1.63599800E-02  4.89854353E-03
 -5.26583475E-03  9.02556160E-04 -1.96509120E-03 -2.98175470E-03 -5.07702998E-03
 -3.93693279E-03  5.86865302E-03 -5.77923816E-02 -1.47107429E-01  2.96189161E-01
  2.80229823E-01 -3.93066310E-02 -4.65921411E-02  9.46714362E-02 -1.41172497E-04
  1.36952683E-02 -1.04618985E-03 -7.16932157E-05  4.56359395E-02 -5.23721330E-02
  1.43468058E-05 -7.17088079E-03  7.66873838E-06 -3.08840751E-05 -8.74022457E-03
 -1.01561872E-02  1.41932824E-02 -2.17034769E-05  5.79904512E-05 -7.17648797E-04
  1.97483737E-02 -5.67751531E-02 -1.44534615E-01  2.91122793E-01  2.73892555E-01
 -2.97800557E-02 -3.53608398E-02 -9.80015217E-02 -1.37580441E-04  9.86098786E-03
  2.28815896E-03 -6.12897640E-05  3.01228245E-02  5.68591840E-02  4.97439488E-05
 -7.07084747E-03  3.52227344E-06  3.10085920E-05 -1.06895093E-02  7.87564200E-03
  1.40119469E-02 -1.02296430E-05 -6.31727330E-05  4.65653108E-03 -1.84462427E-02
 -4.82704969E-04 -1.09611123E-03  2.30867732E-03 -1.84283701E-03 -8.53888080E-03
  7.90980061E-04  1.56589139E-02  1.64243344E-06 -9.62031167E-03  4.17944426E-03
 -2.98468896E-06  3.40627323E-03 -7.97387883E-02 -1.25760252E-04  1.13977414E-04
 -1.22357498E-07 -1.45763054E-05 -2.81801007E-04  6.90598257E-03 -5.62060367E-03