polar                                                                   
SP        RMP2-FC                                                     Gen                 
Number of atoms                            I                7
Info1-9                                    I   N=           9
          98          97           0           0           0         110
           1           2           1
Charge                                     I               -1
Multiplicity                               I                1
Number of electrons                        I               32
Number of alpha electrons                  I               16
Number of beta electrons                   I               16
Number of basis functions                  I              123
Number of independent functions            I              123
Number of point charges in /Mol/           I                0
Number of translation vectors              I                0
Atomic numbers                             I   N=           7
           6           6           1           1           1           8
           8
Nuclear charges                            R   N=           7
  6.00000000E+00  6.00000000E+00  1.00000000E+00  1.00000000E+00  1.00000000E+00
  8.00000000E+00  8.00000000E+00
Current cartesian coordinates              R   N=          21
 -2.54428286E+00 -1.13586773E-01  2.85538053E-04  3.81933111E-01  3.90875389E-03
 -2.34836320E-03 -3.21788690E+00 -2.06804530E+00  1.16054731E-03 -3.27268314E+00
  8.76401845E-01 -1.66675025E+00 -3.26976620E+00  8.76884631E-01  1.66831300E+00
  1.53794963E+00 -2.09888477E+00  6.06601768E-04  1.30385471E+00  2.22048813E+00
  6.00104543E-04
Force Field                                I                0
Int Atom Types                             I   N=           7
           0           0           0           0           0           0
           0
MM charges                                 R   N=           7
  0.00000000E+00  0.00000000E+00  0.00000000E+00  0.00000000E+00  0.00000000E+00
  0.00000000E+00  0.00000000E+00
Integer atomic weights                     I   N=           7
          12          12           1           1           1          16
          16
Real atomic weights                        R   N=           7
  1.20000000E+01  1.20000000E+01  1.00782504E+00  1.00782504E+00  1.00782504E+00
  1.59949146E+01  1.59949146E+01
Atom fragment info                         I   N=           7
           0           0           0           0           0           0
           0
Atom residue num                           I   N=           7
           0           0           0           0           0           0
           0
Nuclear spins                              I   N=           7
           0           0           1           1           1           0
           0
Nuclear ZEff                               R   N=           7
 -3.60000000E+00 -3.60000000E+00 -1.00000000E+00 -1.00000000E+00 -1.00000000E+00
 -5.60000000E+00 -5.60000000E+00
Nuclear ZNuc                               R   N=           7
  6.00000000E+00  6.00000000E+00  1.00000000E+00  1.00000000E+00  1.00000000E+00
  8.00000000E+00  8.00000000E+00
Nuclear QMom                               R   N=           7
  0.00000000E+00  0.00000000E+00  0.00000000E+00  0.00000000E+00  0.00000000E+00
  0.00000000E+00  0.00000000E+00
Nuclear GFac                               R   N=           7
  0.00000000E+00  0.00000000E+00  2.79284600E+00  2.79284600E+00  2.79284600E+00
  0.00000000E+00  0.00000000E+00
MicOpt                                     I   N=           7
          -1          -1          -1          -1          -1          -1
          -1
Number of contracted shells                I               55
Number of primitive shells                 I              110
Pure/Cartesian d shells                    I                0
Pure/Cartesian f shells                    I                0
Highest angular momentum                   I                2
Largest degree of contraction              I                5
Shell types                                I   N=          55
           0           0           0           0           0           1
           1           1          -2          -2           0           0
           0           0           0           1           1           1
          -2          -2           0           0           0           1
           1           0           0           0           1           1
           0           0           0           1           1           0
           0           0           0           0           1           1
           1          -2          -2           0           0           0
           0           0           1           1           1          -2
          -2
Number of primitives per shell             I   N=          55
           5           2           1           1           1           4
           1           1           2           2           5           2
           1           1           1           4           1           1
           2           2           4           1           1           2
           2           4           1           1           2           2
           4           1           1           2           2           5
           2           1           1           1           4           1
           1           2           2           5           2           1
           1           1           4           1           1           2
           2
Shell to atom map                          I   N=          55
           1           1           1           1           1           1
           1           1           1           1           2           2
           2           2           2           2           2           2
           2           2           3           3           3           3
           3           4           4           4           4           4
           5           5           5           5           5           6
           6           6           6           6           6           6
           6           6           6           7           7           7
           7           7           7           7           7           7
           7
Primitive exponents                        R   N=         110
  5.24063530E+03  7.82204800E+02  1.78350830E+02  5.08159420E+01  1.68235620E+01
  6.17577600E+00  2.41804900E+00  5.11900000E-01  1.56590000E-01  4.79000000E-02
  1.88418000E+01  4.15924000E+00  1.20671000E+00  3.85540000E-01  1.21940000E-01
  3.85680000E-02  1.20670000E+00  3.85500000E-01  1.21900000E-01  3.86000000E-02
  5.24063530E+03  7.82204800E+02  1.78350830E+02  5.08159420E+01  1.68235620E+01
  6.17577600E+00  2.41804900E+00  5.11900000E-01  1.56590000E-01  4.79000000E-02
  1.88418000E+01  4.15924000E+00  1.20671000E+00  3.85540000E-01  1.21940000E-01
  3.85680000E-02  1.20670000E+00  3.85500000E-01  1.21900000E-01  3.86000000E-02
  3.38650140E+01  5.09478800E+00  1.15878600E+00  3.25840000E-01  1.02741000E-01
  3.24000000E-02  1.15880000E+00  3.25800000E-01  1.02700000E-01  3.24000000E-02
  3.38650140E+01  5.09478800E+00  1.15878600E+00  3.25840000E-01  1.02741000E-01
  3.24000000E-02  1.15880000E+00  3.25800000E-01  1.02700000E-01  3.24000000E-02
  3.38650140E+01  5.09478800E+00  1.15878600E+00  3.25840000E-01  1.02741000E-01
  3.24000000E-02  1.15880000E+00  3.25800000E-01  1.02700000E-01  3.24000000E-02
  1.06622850E+04  1.59970970E+03  3.64725260E+02  1.03651790E+02  3.39058050E+01
  1.22874690E+01  4.75680500E+00  1.00427100E+00  3.00686000E-01  9.00300000E-02
  3.48564630E+01  7.84313100E+00  2.30624900E+00  7.23164000E-01  2.14882000E-01
  6.38500000E-02  2.30620000E+00  7.23200000E-01  2.14900000E-01  6.39000000E-02
  1.06622850E+04  1.59970970E+03  3.64725260E+02  1.03651790E+02  3.39058050E+01
  1.22874690E+01  4.75680500E+00  1.00427100E+00  3.00686000E-01  9.00300000E-02
  3.48564630E+01  7.84313100E+00  2.30624900E+00  7.23164000E-01  2.14882000E-01
  6.38500000E-02  2.30620000E+00  7.23200000E-01  2.14900000E-01  6.39000000E-02
Contraction coefficients                   R   N=         110
  2.06539993E-03  1.59324554E-02  8.01119476E-02  2.87877514E-01  7.03009673E-01
  6.94067370E-01  3.40077856E-01  1.00000000E+00  1.00000000E+00  1.00000000E+00
  1.80615059E-02  1.12214925E-01  3.75541979E-01  6.49536597E-01  1.00000000E+00
  1.00000000E+00  2.67978866E-01  8.19993920E-01  4.83796365E-01  6.39336711E-01
  2.06539993E-03  1.59324554E-02  8.01119476E-02  2.87877514E-01  7.03009673E-01
  6.94067370E-01  3.40077856E-01  1.00000000E+00  1.00000000E+00  1.00000000E+00
  1.80615059E-02  1.12214925E-01  3.75541979E-01  6.49536597E-01  1.00000000E+00
  1.00000000E+00  2.67978866E-01  8.19993920E-01  4.83796365E-01  6.39336711E-01
  8.76044950E-03  6.54232910E-02  2.92851374E-01  7.27211150E-01  1.00000000E+00
  1.00000000E+00  1.86447366E-01  8.73088966E-01  9.76214574E-01  3.48056130E-02
  8.76044950E-03  6.54232910E-02  2.92851374E-01  7.27211150E-01  1.00000000E+00
  1.00000000E+00  1.86447366E-01  8.73088966E-01  9.76214574E-01  3.48056130E-02
  8.76044950E-03  6.54232910E-02  2.92851374E-01  7.27211150E-01  1.00000000E+00
  1.00000000E+00  1.86447366E-01  8.73088966E-01  9.76214574E-01  3.48056130E-02
  1.90604745E-03  1.46782352E-02  7.43263084E-02  2.75759025E-01  7.19364732E-01
  6.69996511E-01  3.66229217E-01  1.00000000E+00  1.00000000E+00  1.00000000E+00
  1.99439284E-02  1.25155543E-01  3.92261182E-01  6.27670401E-01  1.00000000E+00
  1.00000000E+00  2.83613619E-01  8.10264660E-01  6.73833443E-01  4.58004278E-01
  1.90604745E-03  1.46782352E-02  7.43263084E-02  2.75759025E-01  7.19364732E-01
  6.69996511E-01  3.66229217E-01  1.00000000E+00  1.00000000E+00  1.00000000E+00
  1.99439284E-02  1.25155543E-01  3.92261182E-01  6.27670401E-01  1.00000000E+00
  1.00000000E+00  2.83613619E-01  8.10264660E-01  6.73833443E-01  4.58004278E-01
Coordinates of each shell                  R   N=         165
 -2.54428286E+00 -1.13586773E-01  2.85538053E-04 -2.54428286E+00 -1.13586773E-01
  2.85538053E-04 -2.54428286E+00 -1.13586773E-01  2.85538053E-04 -2.54428286E+00
 -1.13586773E-01  2.85538053E-04 -2.54428286E+00 -1.13586773E-01  2.85538053E-04
 -2.54428286E+00 -1.13586773E-01  2.85538053E-04 -2.54428286E+00 -1.13586773E-01
  2.85538053E-04 -2.54428286E+00 -1.13586773E-01  2.85538053E-04 -2.54428286E+00
 -1.13586773E-01  2.85538053E-04 -2.54428286E+00 -1.13586773E-01  2.85538053E-04
  3.81933111E-01  3.90875389E-03 -2.34836320E-03  3.81933111E-01  3.90875389E-03
 -2.34836320E-03  3.81933111E-01  3.90875389E-03 -2.34836320E-03  3.81933111E-01
  3.90875389E-03 -2.34836320E-03  3.81933111E-01  3.90875389E-03 -2.34836320E-03
  3.81933111E-01  3.90875389E-03 -2.34836320E-03  3.81933111E-01  3.90875389E-03
 -2.34836320E-03  3.81933111E-01  3.90875389E-03 -2.34836320E-03  3.81933111E-01
  3.90875389E-03 -2.34836320E-03  3.81933111E-01  3.90875389E-03 -2.34836320E-03
 -3.21788690E+00 -2.06804530E+00  1.16054731E-03 -3.21788690E+00 -2.06804530E+00
  1.16054731E-03 -3.21788690E+00 -2.06804530E+00  1.16054731E-03 -3.21788690E+00
 -2.06804530E+00  1.16054731E-03 -3.21788690E+00 -2.06804530E+00  1.16054731E-03
 -3.27268314E+00  8.76401845E-01 -1.66675025E+00 -3.27268314E+00  8.76401845E-01
 -1.66675025E+00 -3.27268314E+00  8.76401845E-01 -1.66675025E+00 -3.27268314E+00
  8.76401845E-01 -1.66675025E+00 -3.27268314E+00  8.76401845E-01 -1.66675025E+00
 -3.26976620E+00  8.76884631E-01  1.66831300E+00 -3.26976620E+00  8.76884631E-01
  1.66831300E+00 -3.26976620E+00  8.76884631E-01  1.66831300E+00 -3.26976620E+00
  8.76884631E-01  1.66831300E+00 -3.26976620E+00  8.76884631E-01  1.66831300E+00
  1.53794963E+00 -2.09888477E+00  6.06601768E-04  1.53794963E+00 -2.09888477E+00
  6.06601768E-04  1.53794963E+00 -2.09888477E+00  6.06601768E-04  1.53794963E+00
 -2.09888477E+00  6.06601768E-04  1.53794963E+00 -2.09888477E+00  6.06601768E-04
  1.53794963E+00 -2.09888477E+00  6.06601768E-04  1.53794963E+00 -2.09888477E+00
  6.06601768E-04  1.53794963E+00 -2.09888477E+00  6.06601768E-04  1.53794963E+00
 -2.09888477E+00  6.06601768E-04  1.53794963E+00 -2.09888477E+00  6.06601768E-04
  1.30385471E+00  2.22048813E+00  6.00104543E-04  1.30385471E+00  2.22048813E+00
  6.00104543E-04  1.30385471E+00  2.22048813E+00  6.00104543E-04  1.30385471E+00
  2.22048813E+00  6.00104543E-04  1.30385471E+00  2.22048813E+00  6.00104543E-04
  1.30385471E+00  2.22048813E+00  6.00104543E-04  1.30385471E+00  2.22048813E+00
  6.00104543E-04  1.30385471E+00  2.22048813E+00  6.00104543E-04  1.30385471E+00
  2.22048813E+00  6.00104543E-04  1.30385471E+00  2.22048813E+00  6.00104543E-04
Constraint Structure                       R   N=          21
 -2.54428286E+00 -1.13586773E-01  2.85538053E-04  3.81933111E-01  3.90875389E-03
 -2.34836320E-03 -3.21788690E+00 -2.06804530E+00  1.16054731E-03 -3.27268314E+00
  8.76401845E-01 -1.66675025E+00 -3.26976620E+00  8.76884631E-01  1.66831300E+00
  1.53794963E+00 -2.09888477E+00  6.06601768E-04  1.30385471E+00  2.22048813E+00
  6.00104543E-04
Num ILSW                                   I              100
ILSW                                       I   N=         100
           0           0           0           0           2           0
           0           0           0           0           0          -1
           0           0           0           0           0           0
           0           0           0           0           0           0
           1           0           0           0           0           0
           0           0      100000           0          -1           0
           0           0           0           0           0           0
           0           0           0           1           0           0
           0           0           1           0           0           0
           0           0           4          41           0           0
           0           0           0           0           0           0
           0           0           0           7           0           0
           0           0           0           0           0           0
           0           0           0           0           0           0
           0           0           0           0           0           0
           0           0           0           0           0           0
           0           0           0           0
Num RLSW                                   I               41
RLSW                                       R   N=          41
  1.00000000E+00  1.00000000E+00  1.00000000E+00  1.00000000E+00  1.00000000E+00
  0.00000000E+00  0.00000000E+00  1.00000000E+00  0.00000000E+00  0.00000000E+00
  0.00000000E+00  0.00000000E+00  1.00000000E+00  0.00000000E+00  0.00000000E+00
  0.00000000E+00  0.00000000E+00  1.00000000E+00  0.00000000E+00  0.00000000E+00
  0.00000000E+00  0.00000000E+00  1.00000000E+00  0.00000000E+00  0.00000000E+00
  0.00000000E+00  0.00000000E+00  1.00000000E+00  0.00000000E+00  0.00000000E+00
  0.00000000E+00  0.00000000E+00  1.00000000E+00  0.00000000E+00  0.00000000E+00
  0.00000000E+00  0.00000000E+00  0.00000000E+00  1.00000000E+00  1.00000000E+00
  0.00000000E+00
MxBond                                     I                4
NBond                                      I   N=           7
           4           3           1           1           1           1
           1
IBond                                      I   N=          28
           2           3           4           5           1           6
           7           0           1           0           0           0
           1           0           0           0           1           0
           0           0           2           0           0           0
           2           0           0           0
RBond                                      R   N=          28
  1.00000000E+00  1.00000000E+00  1.00000000E+00  1.00000000E+00  1.00000000E+00
  2.00000000E+00  2.00000000E+00  0.00000000E+00  1.00000000E+00  0.00000000E+00
  0.00000000E+00  0.00000000E+00  1.00000000E+00  0.00000000E+00  0.00000000E+00
  0.00000000E+00  1.00000000E+00  0.00000000E+00  0.00000000E+00  0.00000000E+00
  2.00000000E+00  0.00000000E+00  0.00000000E+00  0.00000000E+00  2.00000000E+00
  0.00000000E+00  0.00000000E+00  0.00000000E+00
Virial Ratio                               R      2.001927737809186E+00
SCF Energy                                 R     -2.273072473346970E+02
MP2 Energy                                 R     -2.279883960854992E+02
Total Energy                               R     -2.279883960854992E+02
Post-SCF wavefunction norm                 R      1.104492616310885E+00
RMS Density                                R      8.384235647860685E-09
External E-field                           R   N=          35
  0.00000000E+00  8.00000000E-04  0.00000000E+00  0.00000000E+00  0.00000000E+00
  0.00000000E+00  0.00000000E+00  0.00000000E+00  0.00000000E+00  0.00000000E+00
  0.00000000E+00  0.00000000E+00  0.00000000E+00  0.00000000E+00  0.00000000E+00
  0.00000000E+00  0.00000000E+00  0.00000000E+00  0.00000000E+00  0.00000000E+00
  0.00000000E+00  0.00000000E+00  0.00000000E+00  0.00000000E+00  0.00000000E+00
  0.00000000E+00  0.00000000E+00  0.00000000E+00  0.00000000E+00  0.00000000E+00
  0.00000000E+00  0.00000000E+00  0.00000000E+00  0.00000000E+00  0.00000000E+00
IOpCl                                      I                0
IROHF                                      I                0
Alpha Orbital Energies                     R   N=         123
 -2.02907779E+01 -2.02877971E+01 -1.11410187E+01 -1.10543427E+01 -1.15376596E+00
 -1.05575368E+00 -7.91503942E-01 -5.12207054E-01 -4.14897458E-01 -4.10861756E-01
 -4.08517835E-01 -3.57379111E-01 -3.12630425E-01 -2.01761111E-01 -1.94412304E-01
 -1.87632575E-01  1.50446617E-01  1.60791889E-01  1.63186351E-01  1.95037412E-01
  2.28882475E-01  2.35917359E-01  2.36409798E-01  2.42441302E-01  2.42548315E-01
  2.84268068E-01  3.02317054E-01  3.12430264E-01  3.18696208E-01  3.59302204E-01
  3.72098088E-01  3.86722327E-01  3.92246238E-01  4.02566933E-01  4.23458488E-01
  4.38609131E-01  4.48291830E-01  4.61969833E-01  4.63591845E-01  4.63965880E-01
  4.98764845E-01  5.16113070E-01  5.34625222E-01  5.38804877E-01  5.42791207E-01
  5.48542549E-01  5.57216389E-01  5.67025698E-01  5.69874787E-01  5.84789600E-01
  5.97513404E-01  6.16692400E-01  6.44154343E-01  6.51594311E-01  6.86872830E-01
  6.95483983E-01  7.48311962E-01  7.53581249E-01  7.79522073E-01  8.48012259E-01
  8.75362636E-01  8.88647045E-01  9.15553316E-01  9.22556561E-01  9.39366011E-01
  9.55549648E-01  9.68145531E-01  9.94930723E-01  1.05553560E+00  1.07401667E+00
  1.09139045E+00  1.10431152E+00  1.13431591E+00  1.14960709E+00  1.16468781E+00
  1.17118010E+00  1.21373461E+00  1.22860126E+00  1.23983712E+00  1.28702640E+00
  1.36061895E+00  1.38790255E+00  1.38963370E+00  1.44731637E+00  1.47128387E+00
  1.58300288E+00  1.58385983E+00  1.63945367E+00  1.64281253E+00  1.73644347E+00
  1.76500674E+00  1.80834988E+00  1.82822483E+00  1.88330460E+00  1.89043578E+00
  1.96350840E+00  2.01198203E+00  2.03754759E+00  2.06250706E+00  2.25730619E+00
  2.29596764E+00  2.45521034E+00  2.47386346E+00  2.55049270E+00  2.61669398E+00
  2.74620101E+00  2.77713753E+00  2.83957640E+00  2.90538202E+00  2.90896731E+00
  2.96350641E+00  3.02312693E+00  3.12245130E+00  3.17820520E+00  3.47472211E+00
  3.51516993E+00  3.67229240E+00  3.75794233E+00  3.89418512E+00  2.29123483E+01
  2.31784089E+01  4.44645132E+01  4.45157102E+01
Alpha MO coefficients                      R   N=       15129
 -5.56778683E-06  3.45209640E-05 -1.19052319E-04  4.68223049E-04 -2.72284238E-04
 -1.51964130E-04 -2.43612569E-06  3.01711281E-07 -3.42613751E-05  1.06940663E-03
  9.49828389E-07 -9.21137978E-04 -2.11735616E-03  1.01371311E-05 -6.32957022E-05
  1.60242839E-07 -5.77085352E-07 -1.57254887E-04  1.54001208E-04  4.18660378E-04
  5.05326961E-06  2.52440768E-06  1.60891341E-04 -1.04703903E-03 -2.40538018E-05
  4.09133853E-05  2.88292303E-04  6.56302640E-03  1.13204123E-03  2.11622021E-04
 -2.41419530E-04  1.00233088E-06  3.92901715E-03 -4.74181372E-03  5.96632446E-06
  5.28266525E-04  2.82473237E-03 -1.09206877E-05  5.44723794E-05  3.54095242E-07
  9.71705913E-07  3.66671490E-04  4.60872929E-04 -1.59458072E-04  6.10999539E-06
  4.28549235E-07 -6.70587329E-04 -9.69434292E-04 -4.12522402E-05  2.04307005E-03
 -1.53907588E-05 -3.87909312E-05 -8.04221137E-05  6.42571770E-08 -3.99324142E-05
  4.98276592E-04  1.45365608E-06  2.84872402E-05 -2.39488857E-04 -3.29636235E-04
  1.16473081E-04 -5.39711446E-05  8.10234393E-06  3.56375730E-04 -1.78669854E-05
 -1.39477224E-04  2.95180732E-05 -2.47669802E-04 -3.27547998E-04  1.15447400E-04
 -5.39873735E-05 -8.05595552E-06  3.52722068E-04 -1.79007658E-05  1.41554441E-04
  4.19173262E-01  6.63530667E-01  1.52460461E-02 -6.23160528E-03 -5.90309702E-03
 -7.22932985E-04  1.32688411E-03 -2.62327440E-06  1.50758364E-03 -3.10777520E-03
  5.01946154E-06  6.13438053E-04 -1.78236458E-03  2.44932807E-06 -1.19179650E-04
  1.69599427E-07 -9.83779604E-09 -1.67215714E-05 -3.95168242E-05  4.70343296E-04
 -1.52413638E-06  2.04179737E-06  6.19767302E-04  7.36540300E-04 -2.45563647E-03
 -3.87546275E-03 -1.14942215E-04 -1.25785002E-04  1.82065304E-03  3.32529677E-05
  6.74092624E-05  2.72916328E-07 -8.19381232E-04  6.20294138E-04 -2.68702084E-06
 -8.14470698E-04 -6.10774096E-04 -2.41148998E-06 -6.52165440E-06  3.49577426E-07
 -1.08557412E-07  8.40612730E-05  5.72414062E-05  1.23936173E-05  1.13798178E-06
  1.54554970E-06  6.44094549E-04  2.80280129E-04 -6.71819650E-06  4.05342027E-05
 -1.97836654E-04  6.24460042E-04  3.66935060E-04 -1.73142593E-04 -4.11257359E-05
  3.20749367E-07  1.17842143E-03 -1.56512570E-03 -9.40158637E-06  2.72357822E-05
  1.73132572E-04  1.56332238E-05 -4.36030160E-07  2.03999141E-07  6.91912567E-07
 -1.27877765E-04 -1.08063961E-04  3.84873039E-04  6.02700880E-06 -3.98880270E-07
  3.93050780E-04 -2.19605762E-04 -2.44759691E-05  4.21568701E-05  3.34149888E-04
  4.93679785E-03 -5.98826612E-04  1.98340625E-04  2.66576697E-04  1.04182293E-06
  3.52141095E-03  5.67049855E-03  4.77348540E-06  5.13637411E-04 -3.94534763E-04
 -1.43034172E-05  8.90073462E-05  2.27691610E-07 -9.59891887E-07  4.70495471E-04
 -3.74979363E-04 -2.26647274E-04  7.85407120E-06  2.24967388E-06 -4.34651182E-04
 -2.21677526E-04 -6.61113171E-05 -6.46188584E-05  5.62138794E-04  5.12969363E-05
  2.79660255E-05  8.17914454E-07 -1.26639103E-04  1.08811346E-04 -4.91008569E-07
 -5.24191799E-06  9.79705998E-04 -2.40777251E-04 -9.71642330E-05  2.00200323E-05
  2.28530303E-05  1.95164062E-04  1.45480475E-04  3.53087261E-04 -5.03931937E-06
  1.01332039E-03 -2.41587481E-04 -9.73060779E-05  1.91579961E-05 -2.23617360E-05
  1.96374763E-04  1.40323113E-04 -3.64580888E-04  2.45585146E-03  3.89971041E-03
  5.34606730E-05 -9.69555790E-05  2.22124864E-03  3.90487284E-05 -4.84999335E-05
  2.25059702E-07 -9.24039165E-04 -5.96607985E-04 -2.56359343E-06 -1.18436571E-03
  4.73804271E-04 -2.48004650E-06 -1.31315868E-05  2.67376403E-07  1.58557755E-07
  8.92394407E-05 -3.38217809E-05  1.50546274E-05  1.72721669E-06 -1.54065897E-06
  6.67705053E-04 -2.56218362E-04  4.19171853E-01  6.63536831E-01  1.51902766E-02
 -5.91926293E-03 -5.61649912E-03 -5.95355610E-04 -1.40025372E-03 -2.60414955E-06
  1.19284187E-03  3.08784215E-03  4.32254977E-06  6.64050940E-04  1.73591753E-03
  6.42761042E-07 -1.10611051E-04  1.94387133E-07  5.32418655E-09 -1.95873631E-05
  4.43663327E-05  4.53529988E-04 -1.33902897E-06 -1.84944848E-06  6.51474167E-04
 -5.95400714E-04  1.39201880E-03  1.91434876E-03  3.18085474E-04 -7.61389712E-04
  2.83815798E-03  2.59515879E-04 -1.00814397E-06 -3.00415377E-07  1.53774189E-03
 -8.34951374E-04  5.77532582E-06  2.45050727E-04  9.56021264E-05 -2.12677342E-05
  4.95608286E-05  2.97199996E-07  1.26416852E-07  4.53941778E-05  1.36558123E-05
 -6.27831369E-04 -8.35087250E-06 -2.47071803E-06  2.61948965E-05 -1.02905348E-04
  4.53535997E-01  6.31405500E-01  1.18895159E-02 -1.68173690E-03 -5.67986201E-03
  9.22732929E-05 -2.98992738E-06 -9.37661152E-07  1.57463337E-03  1.21567924E-04
 -4.76704778E-06  3.08741238E-04  7.13928687E-05  1.61422454E-05 -5.08555445E-04
  2.01523733E-07  2.92580128E-08 -3.50333714E-04 -7.19100846E-05  1.11599724E-03
 -7.72185025E-06  5.68175769E-07 -1.31476980E-04 -1.41522381E-04  4.50080965E-05
 -5.69413968E-04  8.88871927E-05  1.59629773E-05  4.42137692E-05 -6.39831503E-07
  1.30028622E-04 -1.27698587E-04 -1.37247855E-06  1.64741220E-05  2.39380676E-03
 -6.19347016E-05  3.67279832E-05  1.28778183E-05  1.15810130E-04  6.90268227E-04
 -5.44721377E-04  4.12513507E-04  1.61342446E-05  2.36584683E-03 -5.51291170E-05
  3.68331730E-05  1.33994042E-05 -1.15945931E-04  6.87107022E-04 -5.38824711E-04
 -4.03941971E-04 -1.08166477E-04 -2.79554568E-04  4.42523294E-04 -3.77855930E-04
  8.14212027E-04 -2.29102446E-04  4.91839794E-04 -7.41561311E-07  3.18315804E-04
 -6.27120822E-04  3.92577705E-06  4.49252728E-04 -6.07120055E-04  6.95994194E-07
 -8.19273182E-05 -6.48918182E-08 -2.33344894E-07 -1.80314383E-04 -1.76814667E-04
  4.17270071E-04 -9.88775579E-07  3.32106640E-06  3.04867998E-04  5.77146459E-04
 -1.07977385E-04 -2.74903332E-04  4.07969451E-04 -2.20946535E-04  6.97692295E-04
 -1.80650023E-04 -5.23652966E-04 -7.81205483E-07  2.71587373E-04  6.16607213E-04
  3.71008761E-06  7.74642734E-04  6.17693504E-04  5.93405202E-07 -8.68878743E-05
  9.54567175E-09  2.75151805E-07 -2.08080618E-04  1.37734129E-04  4.07830632E-04
 -1.21142399E-06 -3.40954156E-06  3.24602853E-04 -5.44319433E-04  4.53353276E-01
  6.31154242E-01  1.37630486E-02 -1.29365270E-02 -1.11817204E-02 -4.09847042E-04
  1.12633353E-04 -2.65186070E-08 -1.48742099E-04 -8.03089281E-05 -2.23471025E-07
 -8.98819965E-04 -6.24037987E-04 -1.93353117E-06  5.42447261E-05  3.68945086E-07
 -2.00052057E-08 -6.57581559E-05 -3.20052926E-05  1.06969570E-04 -8.79976842E-07
  1.02980852E-07 -2.60493667E-04 -2.27399234E-04 -1.47669362E-03 -2.07958048E-03
  8.03296733E-05  3.60179054E-03  6.95210380E-03 -3.55382270E-04 -2.38198833E-05
  2.90678598E-07 -1.41707479E-03 -7.23410173E-05  3.94944511E-06 -1.81049815E-03
  6.31143810E-04  4.24337160E-06 -1.10152753E-04  9.65217733E-08  1.01538760E-09
  9.32654149E-05  2.15040620E-05 -1.50394501E-04 -2.36845624E-06  2.24258004E-07
  7.25704210E-04 -2.42050959E-04  6.63650404E-04  3.84628850E-03  5.80007788E-04
  4.00665238E-05  2.94911768E-05 -1.19231942E-08  3.20497663E-04  1.24642147E-03
 -4.57053176E-07  5.99034420E-04  3.28270870E-03  5.50909997E-04  2.14455546E-05
  2.61017758E-05 -5.95421500E-05  2.97698765E-04 -5.25619073E-04  8.86589576E-04
  5.99453349E-04  3.28003339E-03  5.50290704E-04  2.16266242E-05  2.59621520E-05
  5.92821415E-05  2.95931887E-04 -5.25351764E-04 -8.85808739E-04  3.16620889E-06
  6.41612970E-06  1.04049731E-05 -2.19868408E-04 -9.37746168E-04  3.07712401E-05
 -1.26203779E-05  6.67223103E-08  2.10300559E-04 -2.99543434E-04  2.42596124E-07
  8.20023285E-05 -6.22180946E-04  3.52073370E-07 -3.86776090E-06 -8.53398396E-08
  1.14755780E-08  1.02762257E-05 -3.56394674E-06  7.26547172E-05  1.30367275E-07
  3.34235589E-07  1.23330518E-04  1.38578022E-04  2.96346827E-06  9.27256405E-06
 -1.32040796E-05 -1.39339460E-04 -5.76872544E-04  3.13718186E-05  1.76236615E-05
  1.08423429E-07  1.55246407E-04  2.90971877E-04 -1.10136000E-07  8.69571382E-05
  3.16739981E-04  3.12340070E-07 -2.69465625E-06 -5.13147760E-08 -3.65124764E-08
  1.66422189E-05  5.89140858E-06  4.26427112E-05  3.56587129E-08 -2.03950471E-07
  1.58597213E-04 -8.84779775E-05 -1.05859432E-02 -2.48630340E-02  5.23259741E-02
 -5.87437031E-02 -2.08142488E-01  3.84567943E-02  2.00133521E-03 -2.19222090E-05
 -2.17369221E-02  2.06347594E-02  7.80475150E-05 -3.86034710E-02  2.03771211E-02
 -3.70708298E-04 -3.72125134E-03 -1.47130661E-05 -8.22574026E-08  1.11157443E-02
  3.18855549E-04 -2.52193914E-02 -1.68197049E-04 -3.74242005E-05 -2.08629318E-02
  2.06956414E-02 -6.00875663E-02 -1.37147461E-01  2.79112933E-01  2.47877055E-01
  2.63613457E-01  9.28725603E-02  3.10569422E-03  2.67873395E-04 -8.59504468E-02
 -1.68230838E-02 -1.41368387E-05 -1.20150478E-01 -4.10840043E-02  4.41998719E-04
 -2.45879848E-02  2.34487568E-05  7.03198541E-07 -3.27579663E-02 -3.81957104E-03
  2.36585185E-02 -2.78260879E-04 -4.17115385E-05  6.49766013E-02  2.27442397E-02
  1.67587629E-02  1.51294444E-02 -3.50019024E-02  2.11437401E-03  5.12180891E-03
 -9.72218786E-06  1.38082083E-02  7.57822542E-03 -3.26715414E-05  1.62464227E-02
  5.01227834E-03 -5.41120027E-03  8.88322071E-04 -1.96439535E-03  2.94543889E-03
 -5.11649251E-03 -3.94775097E-03 -5.77216421E-03  1.62450005E-02  4.70763235E-03
 -5.40713464E-03  8.96017867E-04 -1.95262784E-03 -2.95480684E-03 -5.07971038E-03
 -3.90901513E-03  5.91095853E-03 -5.78286733E-02 -1.47199894E-01  2.96363692E-01
  2.80468101E-01 -3.92505328E-02 -4.65390414E-02  9.47130894E-02 -8.97886525E-05
  1.38147975E-02 -1.03623367E-03  3.44661517E-05  4.57140960E-02 -5.23917591E-02
  5.26014657E-05 -7.17074584E-03  6.31071466E-06 -2.70766278E-05 -8.75149665E-03
 -1.01550382E-02  1.42110950E-02 -2.15964141E-05  6.89426029E-05 -7.19098511E-04
  1.97762569E-02 -5.67721276E-02 -1.44527082E-01  2.91099177E-01  2.73922760E-01
 -2.96839745E-02 -3.52770571E-02 -9.79954644E-02 -8.74724579E-05  9.97885076E-03
  2.26372181E-03  4.10329499E-05  3.01550599E-02  5.68327670E-02  7.42287924E-05
 -7.06687346E-03  2.39186748E-06  2.69572639E-05 -1.06972776E-02  7.86546738E-03
  1.40141756E-02 -7.68970238E-06 -7.08930451E-05  4.64517795E-03 -1.84621388E-02
 -4.83551696E-04 -1.09822226E-03  2.31297577E-03 -1.85052745E-03 -8.52444673E-03
  8.03470456E-04  1.55992719E-02 -4.74125382E-07 -9.61007924E-03  4.18580286E-03
 -7.51339831E-06  3.37370887E-03 -7.97805342E-02 -1.41471745E-04  1.11436996E-04
  4.60035363E-07 -1.31248283E-05 -2.78431202E-04  6.90606083E-03 -5.59662667E-03