polar                                                                   
SP        RMP2-FC                                                     Gen                 
Number of atoms                            I                7
Info1-9                                    I   N=           9
          98          97           0           0           0         110
           1           2           1
Charge                                     I               -1
Multiplicity                               I                1
Number of electrons                        I               32
Number of alpha electrons                  I               16
Number of beta electrons                   I               16
Number of basis functions                  I              123
Number of independent functions            I              123
Number of point charges in /Mol/           I                0
Number of translation vectors              I                0
Atomic numbers                             I   N=           7
           6           6           1           1           1           8
           8
Nuclear charges                            R   N=           7
  6.00000000E+00  6.00000000E+00  1.00000000E+00  1.00000000E+00  1.00000000E+00
  8.00000000E+00  8.00000000E+00
Current cartesian coordinates              R   N=          21
 -2.54428286E+00 -1.13586773E-01  2.85538053E-04  3.81933111E-01  3.90875389E-03
 -2.34836320E-03 -3.21788690E+00 -2.06804530E+00  1.16054731E-03 -3.27268314E+00
  8.76401845E-01 -1.66675025E+00 -3.26976620E+00  8.76884631E-01  1.66831300E+00
  1.53794963E+00 -2.09888477E+00  6.06601768E-04  1.30385471E+00  2.22048813E+00
  6.00104543E-04
Force Field                                I                0
Int Atom Types                             I   N=           7
           0           0           0           0           0           0
           0
MM charges                                 R   N=           7
  0.00000000E+00  0.00000000E+00  0.00000000E+00  0.00000000E+00  0.00000000E+00
  0.00000000E+00  0.00000000E+00
Integer atomic weights                     I   N=           7
          12          12           1           1           1          16
          16
Real atomic weights                        R   N=           7
  1.20000000E+01  1.20000000E+01  1.00782504E+00  1.00782504E+00  1.00782504E+00
  1.59949146E+01  1.59949146E+01
Atom fragment info                         I   N=           7
           0           0           0           0           0           0
           0
Atom residue num                           I   N=           7
           0           0           0           0           0           0
           0
Nuclear spins                              I   N=           7
           0           0           1           1           1           0
           0
Nuclear ZEff                               R   N=           7
 -3.60000000E+00 -3.60000000E+00 -1.00000000E+00 -1.00000000E+00 -1.00000000E+00
 -5.60000000E+00 -5.60000000E+00
Nuclear ZNuc                               R   N=           7
  6.00000000E+00  6.00000000E+00  1.00000000E+00  1.00000000E+00  1.00000000E+00
  8.00000000E+00  8.00000000E+00
Nuclear QMom                               R   N=           7
  0.00000000E+00  0.00000000E+00  0.00000000E+00  0.00000000E+00  0.00000000E+00
  0.00000000E+00  0.00000000E+00
Nuclear GFac                               R   N=           7
  0.00000000E+00  0.00000000E+00  2.79284600E+00  2.79284600E+00  2.79284600E+00
  0.00000000E+00  0.00000000E+00
MicOpt                                     I   N=           7
          -1          -1          -1          -1          -1          -1
          -1
Number of contracted shells                I               55
Number of primitive shells                 I              110
Pure/Cartesian d shells                    I                0
Pure/Cartesian f shells                    I                0
Highest angular momentum                   I                2
Largest degree of contraction              I                5
Shell types                                I   N=          55
           0           0           0           0           0           1
           1           1          -2          -2           0           0
           0           0           0           1           1           1
          -2          -2           0           0           0           1
           1           0           0           0           1           1
           0           0           0           1           1           0
           0           0           0           0           1           1
           1          -2          -2           0           0           0
           0           0           1           1           1          -2
          -2
Number of primitives per shell             I   N=          55
           5           2           1           1           1           4
           1           1           2           2           5           2
           1           1           1           4           1           1
           2           2           4           1           1           2
           2           4           1           1           2           2
           4           1           1           2           2           5
           2           1           1           1           4           1
           1           2           2           5           2           1
           1           1           4           1           1           2
           2
Shell to atom map                          I   N=          55
           1           1           1           1           1           1
           1           1           1           1           2           2
           2           2           2           2           2           2
           2           2           3           3           3           3
           3           4           4           4           4           4
           5           5           5           5           5           6
           6           6           6           6           6           6
           6           6           6           7           7           7
           7           7           7           7           7           7
           7
Primitive exponents                        R   N=         110
  5.24063530E+03  7.82204800E+02  1.78350830E+02  5.08159420E+01  1.68235620E+01
  6.17577600E+00  2.41804900E+00  5.11900000E-01  1.56590000E-01  4.79000000E-02
  1.88418000E+01  4.15924000E+00  1.20671000E+00  3.85540000E-01  1.21940000E-01
  3.85680000E-02  1.20670000E+00  3.85500000E-01  1.21900000E-01  3.86000000E-02
  5.24063530E+03  7.82204800E+02  1.78350830E+02  5.08159420E+01  1.68235620E+01
  6.17577600E+00  2.41804900E+00  5.11900000E-01  1.56590000E-01  4.79000000E-02
  1.88418000E+01  4.15924000E+00  1.20671000E+00  3.85540000E-01  1.21940000E-01
  3.85680000E-02  1.20670000E+00  3.85500000E-01  1.21900000E-01  3.86000000E-02
  3.38650140E+01  5.09478800E+00  1.15878600E+00  3.25840000E-01  1.02741000E-01
  3.24000000E-02  1.15880000E+00  3.25800000E-01  1.02700000E-01  3.24000000E-02
  3.38650140E+01  5.09478800E+00  1.15878600E+00  3.25840000E-01  1.02741000E-01
  3.24000000E-02  1.15880000E+00  3.25800000E-01  1.02700000E-01  3.24000000E-02
  3.38650140E+01  5.09478800E+00  1.15878600E+00  3.25840000E-01  1.02741000E-01
  3.24000000E-02  1.15880000E+00  3.25800000E-01  1.02700000E-01  3.24000000E-02
  1.06622850E+04  1.59970970E+03  3.64725260E+02  1.03651790E+02  3.39058050E+01
  1.22874690E+01  4.75680500E+00  1.00427100E+00  3.00686000E-01  9.00300000E-02
  3.48564630E+01  7.84313100E+00  2.30624900E+00  7.23164000E-01  2.14882000E-01
  6.38500000E-02  2.30620000E+00  7.23200000E-01  2.14900000E-01  6.39000000E-02
  1.06622850E+04  1.59970970E+03  3.64725260E+02  1.03651790E+02  3.39058050E+01
  1.22874690E+01  4.75680500E+00  1.00427100E+00  3.00686000E-01  9.00300000E-02
  3.48564630E+01  7.84313100E+00  2.30624900E+00  7.23164000E-01  2.14882000E-01
  6.38500000E-02  2.30620000E+00  7.23200000E-01  2.14900000E-01  6.39000000E-02
Contraction coefficients                   R   N=         110
  2.06539993E-03  1.59324554E-02  8.01119476E-02  2.87877514E-01  7.03009673E-01
  6.94067370E-01  3.40077856E-01  1.00000000E+00  1.00000000E+00  1.00000000E+00
  1.80615059E-02  1.12214925E-01  3.75541979E-01  6.49536597E-01  1.00000000E+00
  1.00000000E+00  2.67978866E-01  8.19993920E-01  4.83796365E-01  6.39336711E-01
  2.06539993E-03  1.59324554E-02  8.01119476E-02  2.87877514E-01  7.03009673E-01
  6.94067370E-01  3.40077856E-01  1.00000000E+00  1.00000000E+00  1.00000000E+00
  1.80615059E-02  1.12214925E-01  3.75541979E-01  6.49536597E-01  1.00000000E+00
  1.00000000E+00  2.67978866E-01  8.19993920E-01  4.83796365E-01  6.39336711E-01
  8.76044950E-03  6.54232910E-02  2.92851374E-01  7.27211150E-01  1.00000000E+00
  1.00000000E+00  1.86447366E-01  8.73088966E-01  9.76214574E-01  3.48056130E-02
  8.76044950E-03  6.54232910E-02  2.92851374E-01  7.27211150E-01  1.00000000E+00
  1.00000000E+00  1.86447366E-01  8.73088966E-01  9.76214574E-01  3.48056130E-02
  8.76044950E-03  6.54232910E-02  2.92851374E-01  7.27211150E-01  1.00000000E+00
  1.00000000E+00  1.86447366E-01  8.73088966E-01  9.76214574E-01  3.48056130E-02
  1.90604745E-03  1.46782352E-02  7.43263084E-02  2.75759025E-01  7.19364732E-01
  6.69996511E-01  3.66229217E-01  1.00000000E+00  1.00000000E+00  1.00000000E+00
  1.99439284E-02  1.25155543E-01  3.92261182E-01  6.27670401E-01  1.00000000E+00
  1.00000000E+00  2.83613619E-01  8.10264660E-01  6.73833443E-01  4.58004278E-01
  1.90604745E-03  1.46782352E-02  7.43263084E-02  2.75759025E-01  7.19364732E-01
  6.69996511E-01  3.66229217E-01  1.00000000E+00  1.00000000E+00  1.00000000E+00
  1.99439284E-02  1.25155543E-01  3.92261182E-01  6.27670401E-01  1.00000000E+00
  1.00000000E+00  2.83613619E-01  8.10264660E-01  6.73833443E-01  4.58004278E-01
Coordinates of each shell                  R   N=         165
 -2.54428286E+00 -1.13586773E-01  2.85538053E-04 -2.54428286E+00 -1.13586773E-01
  2.85538053E-04 -2.54428286E+00 -1.13586773E-01  2.85538053E-04 -2.54428286E+00
 -1.13586773E-01  2.85538053E-04 -2.54428286E+00 -1.13586773E-01  2.85538053E-04
 -2.54428286E+00 -1.13586773E-01  2.85538053E-04 -2.54428286E+00 -1.13586773E-01
  2.85538053E-04 -2.54428286E+00 -1.13586773E-01  2.85538053E-04 -2.54428286E+00
 -1.13586773E-01  2.85538053E-04 -2.54428286E+00 -1.13586773E-01  2.85538053E-04
  3.81933111E-01  3.90875389E-03 -2.34836320E-03  3.81933111E-01  3.90875389E-03
 -2.34836320E-03  3.81933111E-01  3.90875389E-03 -2.34836320E-03  3.81933111E-01
  3.90875389E-03 -2.34836320E-03  3.81933111E-01  3.90875389E-03 -2.34836320E-03
  3.81933111E-01  3.90875389E-03 -2.34836320E-03  3.81933111E-01  3.90875389E-03
 -2.34836320E-03  3.81933111E-01  3.90875389E-03 -2.34836320E-03  3.81933111E-01
  3.90875389E-03 -2.34836320E-03  3.81933111E-01  3.90875389E-03 -2.34836320E-03
 -3.21788690E+00 -2.06804530E+00  1.16054731E-03 -3.21788690E+00 -2.06804530E+00
  1.16054731E-03 -3.21788690E+00 -2.06804530E+00  1.16054731E-03 -3.21788690E+00
 -2.06804530E+00  1.16054731E-03 -3.21788690E+00 -2.06804530E+00  1.16054731E-03
 -3.27268314E+00  8.76401845E-01 -1.66675025E+00 -3.27268314E+00  8.76401845E-01
 -1.66675025E+00 -3.27268314E+00  8.76401845E-01 -1.66675025E+00 -3.27268314E+00
  8.76401845E-01 -1.66675025E+00 -3.27268314E+00  8.76401845E-01 -1.66675025E+00
 -3.26976620E+00  8.76884631E-01  1.66831300E+00 -3.26976620E+00  8.76884631E-01
  1.66831300E+00 -3.26976620E+00  8.76884631E-01  1.66831300E+00 -3.26976620E+00
  8.76884631E-01  1.66831300E+00 -3.26976620E+00  8.76884631E-01  1.66831300E+00
  1.53794963E+00 -2.09888477E+00  6.06601768E-04  1.53794963E+00 -2.09888477E+00
  6.06601768E-04  1.53794963E+00 -2.09888477E+00  6.06601768E-04  1.53794963E+00
 -2.09888477E+00  6.06601768E-04  1.53794963E+00 -2.09888477E+00  6.06601768E-04
  1.53794963E+00 -2.09888477E+00  6.06601768E-04  1.53794963E+00 -2.09888477E+00
  6.06601768E-04  1.53794963E+00 -2.09888477E+00  6.06601768E-04  1.53794963E+00
 -2.09888477E+00  6.06601768E-04  1.53794963E+00 -2.09888477E+00  6.06601768E-04
  1.30385471E+00  2.22048813E+00  6.00104543E-04  1.30385471E+00  2.22048813E+00
  6.00104543E-04  1.30385471E+00  2.22048813E+00  6.00104543E-04  1.30385471E+00
  2.22048813E+00  6.00104543E-04  1.30385471E+00  2.22048813E+00  6.00104543E-04
  1.30385471E+00  2.22048813E+00  6.00104543E-04  1.30385471E+00  2.22048813E+00
  6.00104543E-04  1.30385471E+00  2.22048813E+00  6.00104543E-04  1.30385471E+00
  2.22048813E+00  6.00104543E-04  1.30385471E+00  2.22048813E+00  6.00104543E-04
Constraint Structure                       R   N=          21
 -2.54428286E+00 -1.13586773E-01  2.85538053E-04  3.81933111E-01  3.90875389E-03
 -2.34836320E-03 -3.21788690E+00 -2.06804530E+00  1.16054731E-03 -3.27268314E+00
  8.76401845E-01 -1.66675025E+00 -3.26976620E+00  8.76884631E-01  1.66831300E+00
  1.53794963E+00 -2.09888477E+00  6.06601768E-04  1.30385471E+00  2.22048813E+00
  6.00104543E-04
Num ILSW                                   I              100
ILSW                                       I   N=         100
           0           0           0           0           2           0
           0           0           0           0           0          -1
           0           0           0           0           0           0
           0           0           0           0           0           0
           1           0           0           0           0           0
           0           0      100000           0          -1           0
           0           0           0           0           0           0
           0           0           0           1           0           0
           0           0           1           0           0           0
           0           0           4          41           0           0
           0           0           0           0           0           0
           0           0           0           7           0           0
           0           0           0           0           0           0
           0           0           0           0           0           0
           0           0           0           0           0           0
           0           0           0           0           0           0
           0           0           0           0
Num RLSW                                   I               41
RLSW                                       R   N=          41
  1.00000000E+00  1.00000000E+00  1.00000000E+00  1.00000000E+00  1.00000000E+00
  0.00000000E+00  0.00000000E+00  1.00000000E+00  0.00000000E+00  0.00000000E+00
  0.00000000E+00  0.00000000E+00  1.00000000E+00  0.00000000E+00  0.00000000E+00
  0.00000000E+00  0.00000000E+00  1.00000000E+00  0.00000000E+00  0.00000000E+00
  0.00000000E+00  0.00000000E+00  1.00000000E+00  0.00000000E+00  0.00000000E+00
  0.00000000E+00  0.00000000E+00  1.00000000E+00  0.00000000E+00  0.00000000E+00
  0.00000000E+00  0.00000000E+00  1.00000000E+00  0.00000000E+00  0.00000000E+00
  0.00000000E+00  0.00000000E+00  0.00000000E+00  1.00000000E+00  1.00000000E+00
  0.00000000E+00
MxBond                                     I                4
NBond                                      I   N=           7
           4           3           1           1           1           1
           1
IBond                                      I   N=          28
           2           3           4           5           1           6
           7           0           1           0           0           0
           1           0           0           0           1           0
           0           0           2           0           0           0
           2           0           0           0
RBond                                      R   N=          28
  1.00000000E+00  1.00000000E+00  1.00000000E+00  1.00000000E+00  1.00000000E+00
  2.00000000E+00  2.00000000E+00  0.00000000E+00  1.00000000E+00  0.00000000E+00
  0.00000000E+00  0.00000000E+00  1.00000000E+00  0.00000000E+00  0.00000000E+00
  0.00000000E+00  1.00000000E+00  0.00000000E+00  0.00000000E+00  0.00000000E+00
  2.00000000E+00  0.00000000E+00  0.00000000E+00  0.00000000E+00  2.00000000E+00
  0.00000000E+00  0.00000000E+00  0.00000000E+00
Virial Ratio                               R      2.001922905861098E+00
SCF Energy                                 R     -2.273059769304654E+02
MP2 Energy                                 R     -2.279872789876580E+02
Total Energy                               R     -2.279872789876580E+02
Post-SCF wavefunction norm                 R      1.104548546364303E+00
RMS Density                                R      7.801175592977407E-09
External E-field                           R   N=          35
  0.00000000E+00  0.00000000E+00  8.00000000E-04  0.00000000E+00  0.00000000E+00
  0.00000000E+00  0.00000000E+00  0.00000000E+00  0.00000000E+00  0.00000000E+00
  0.00000000E+00  0.00000000E+00  0.00000000E+00  0.00000000E+00  0.00000000E+00
  0.00000000E+00  0.00000000E+00  0.00000000E+00  0.00000000E+00  0.00000000E+00
  0.00000000E+00  0.00000000E+00  0.00000000E+00  0.00000000E+00  0.00000000E+00
  0.00000000E+00  0.00000000E+00  0.00000000E+00  0.00000000E+00  0.00000000E+00
  0.00000000E+00  0.00000000E+00  0.00000000E+00  0.00000000E+00  0.00000000E+00
IOpCl                                      I                0
IROHF                                      I                0
Alpha Orbital Energies                     R   N=         123
 -2.02898892E+01 -2.02879748E+01 -1.11410001E+01 -1.10559000E+01 -1.15342357E+00
 -1.05538820E+00 -7.92836141E-01 -5.12458385E-01 -4.15439956E-01 -4.10843332E-01
 -4.09772044E-01 -3.57867195E-01 -3.12797813E-01 -2.01353727E-01 -1.94363800E-01
 -1.87066955E-01  1.45612079E-01  1.55664453E-01  1.61314957E-01  1.94949058E-01
  2.27794644E-01  2.34710752E-01  2.36113523E-01  2.42892645E-01  2.43046219E-01
  2.84900312E-01  2.99432560E-01  3.09146619E-01  3.16864740E-01  3.59097593E-01
  3.71926020E-01  3.85521897E-01  3.92410296E-01  4.02444484E-01  4.24016960E-01
  4.38853760E-01  4.47165873E-01  4.60877541E-01  4.63407721E-01  4.63788895E-01
  4.99321151E-01  5.16164653E-01  5.36218776E-01  5.37080004E-01  5.43728826E-01
  5.46474501E-01  5.55435361E-01  5.65925232E-01  5.67179339E-01  5.82562072E-01
  5.95719098E-01  6.14769570E-01  6.42761952E-01  6.49975378E-01  6.85802491E-01
  6.94804901E-01  7.47777223E-01  7.53381499E-01  7.80270025E-01  8.47275898E-01
  8.74980903E-01  8.89112186E-01  9.15275776E-01  9.23032227E-01  9.40706140E-01
  9.55794078E-01  9.67508873E-01  9.95777497E-01  1.05649435E+00  1.07376649E+00
  1.08982849E+00  1.10432779E+00  1.13414706E+00  1.14848570E+00  1.16393395E+00
  1.16993217E+00  1.21365986E+00  1.22755336E+00  1.23875818E+00  1.28738610E+00
  1.36078139E+00  1.38818718E+00  1.38942178E+00  1.44751428E+00  1.46945702E+00
  1.58251357E+00  1.58298136E+00  1.63977394E+00  1.64267868E+00  1.73570557E+00
  1.76416444E+00  1.80764386E+00  1.82706492E+00  1.88245767E+00  1.89047343E+00
  1.96230893E+00  2.01054778E+00  2.03675049E+00  2.06245032E+00  2.25633263E+00
  2.29536052E+00  2.45394642E+00  2.47361695E+00  2.54996212E+00  2.61537350E+00
  2.74668473E+00  2.77718893E+00  2.83811809E+00  2.90428515E+00  2.90971073E+00
  2.96405181E+00  3.02323981E+00  3.12281183E+00  3.17866788E+00  3.47501357E+00
  3.51545967E+00  3.67270080E+00  3.75822675E+00  3.89461787E+00  2.29119776E+01
  2.31772377E+01  4.44643477E+01  4.45166015E+01
Alpha MO coefficients                      R   N=       15129
 -5.55434359E-06  3.44861739E-05 -1.19029783E-04  4.64153485E-04 -2.80295835E-04
 -1.51747563E-04 -2.18341903E-06  3.00890239E-07 -3.41132408E-05  1.07914617E-03
  9.87134420E-07 -9.17017769E-04 -2.10875258E-03  1.00806737E-05 -6.35821470E-05
  1.59062688E-07 -5.81028487E-07 -1.56921312E-04  1.54502888E-04  4.14234974E-04
  5.03466303E-06  2.51438301E-06  1.60649882E-04 -1.04140034E-03 -2.40508311E-05
  4.10345336E-05  2.87161247E-04  6.54504621E-03  1.13853647E-03  2.10426794E-04
 -2.41992963E-04  9.96433089E-07  3.91796853E-03 -4.76949465E-03  5.95319347E-06
  5.20639331E-04  2.81557290E-03 -1.08744670E-05  5.55024276E-05  3.51722249E-07
  9.78929657E-07  3.66407698E-04  4.63662620E-04 -1.58599519E-04  6.07835684E-06
  4.20426466E-07 -6.67245835E-04 -9.58159508E-04 -4.14341573E-05  2.04657825E-03
 -2.10320403E-05 -3.90336706E-05 -8.04111329E-05  6.04149852E-08 -3.73307357E-05
  4.98602283E-04  1.45433416E-06  2.87593830E-05 -2.41140176E-04 -3.25340581E-04
  1.16680004E-04 -5.41383732E-05  8.03643431E-06  3.54943370E-04 -1.89796898E-05
 -1.40757277E-04  2.97907961E-05 -2.49461348E-04 -3.23236665E-04  1.15653087E-04
 -5.41504462E-05 -7.99173244E-06  3.51274764E-04 -1.89908665E-05  1.42884705E-04
  4.19163720E-01  6.63515159E-01  1.52416581E-02 -6.22485980E-03 -5.92662168E-03
 -7.27836233E-04  1.33143896E-03 -2.62497516E-06  1.51497831E-03 -3.10882265E-03
  5.02867092E-06  6.25459398E-04 -1.78893882E-03  2.46282721E-06 -1.20615841E-04
  1.69831701E-07 -1.06863768E-08 -1.70355966E-05 -3.97291623E-05  4.72482078E-04
 -1.53339355E-06  2.04973209E-06  6.17217258E-04  7.39451273E-04 -3.82493791E-03
 -6.04296633E-03 -1.65001282E-04 -1.05041289E-04  1.84561521E-03  3.52032060E-05
  7.20674329E-05  2.81101023E-07 -8.25856246E-04  6.08526651E-04 -2.70645378E-06
 -8.20911495E-04 -6.19012711E-04 -2.41388036E-06 -6.28808233E-06  3.50017923E-07
 -1.07463662E-07  8.43181959E-05  5.72923378E-05  1.01774501E-05  1.14863062E-06
  1.55240038E-06  6.41798675E-04  2.83369880E-04 -6.73220171E-06  4.06615763E-05
 -1.98253960E-04  6.24482805E-04  3.82554558E-04 -1.73708443E-04 -4.12330194E-05
  3.21151428E-07  1.17308514E-03 -1.56022209E-03 -9.38996338E-06  1.97638381E-05
  1.54466377E-04  1.55955794E-05 -7.08565753E-07  2.05415227E-07  6.89534352E-07
 -1.28519987E-04 -1.07315602E-04  3.88452129E-04  6.01629423E-06 -3.93620578E-07
  3.91997618E-04 -2.28237410E-04 -2.45582415E-05  4.22584521E-05  3.34975654E-04
  4.95628151E-03 -6.07270423E-04  1.98728508E-04  2.66180797E-04  1.04543817E-06
  3.52066216E-03  5.66213735E-03  4.80320526E-06  5.22863327E-04 -3.70644774E-04
 -1.42731556E-05  8.88877604E-05  2.28572418E-07 -9.54961134E-07  4.71473823E-04
 -3.72642033E-04 -2.26432410E-04  7.84528404E-06  2.26598627E-06 -4.40926573E-04
 -2.32688394E-04 -6.61828851E-05 -5.10691067E-05  5.63037104E-04  5.11916808E-05
  2.76665327E-05  8.16565928E-07 -1.26541921E-04  1.13537861E-04 -4.89893168E-07
 -5.29143702E-06  9.70870954E-04 -2.44905251E-04 -9.71249693E-05  1.95614097E-05
  2.27765240E-05  1.96124668E-04  1.47107587E-04  3.50835040E-04 -5.08685228E-06
  1.00441831E-03 -2.45701899E-04 -9.72678803E-05  1.87003179E-05 -2.22863834E-05
  1.97334689E-04  1.41967803E-04 -3.62306293E-04  3.82515791E-03  6.06727606E-03
  1.02970979E-04 -1.15142201E-04  2.20966965E-03  3.65746994E-05 -4.40597711E-05
  2.16709567E-07 -9.18843546E-04 -6.04594609E-04 -2.54822518E-06 -1.18513667E-03
  4.69418329E-04 -2.47043029E-06 -1.35580059E-05  2.67415077E-07  1.58621679E-07
  8.90694807E-05 -3.39675015E-05  1.68234277E-05  1.72311841E-06 -1.53630322E-06
  6.69743337E-04 -2.53661082E-04  4.19161361E-01  6.63520355E-01  1.51912114E-02
 -5.92141572E-03 -5.60353575E-03 -5.99637307E-04 -1.39636711E-03 -2.60389653E-06
  1.19590216E-03  3.08605045E-03  4.31280710E-06  6.63825504E-04  1.72892478E-03
  6.23101435E-07 -1.09889735E-04  1.93468391E-07  4.93908064E-09 -1.89412121E-05
  4.48540076E-05  4.52644624E-04 -1.33650429E-06 -1.84057007E-06  6.51019117E-04
 -5.96355368E-04  1.41737979E-03  1.94968088E-03  3.20480437E-04 -7.52510787E-04
  2.92754112E-03  2.59149364E-04 -9.55794512E-07 -3.01468371E-07  1.51928692E-03
 -8.44297824E-04  5.76342727E-06  2.47106693E-04  8.81429128E-05 -2.13093185E-05
  5.12447444E-05  3.00535381E-07  1.26344753E-07  4.24605109E-05  1.34605177E-05
 -6.22347634E-04 -8.36616529E-06 -2.44799164E-06  2.50022338E-05 -1.07731948E-04
  4.53535949E-01  6.31405858E-01  1.18862566E-02 -1.75770552E-03 -5.78692076E-03
  7.17935866E-05  1.68354092E-05 -9.47487812E-07  1.55155812E-03  1.49740362E-04
 -4.80186488E-06  3.49221551E-04  7.28793238E-05  1.61621387E-05 -5.04939840E-04
  1.88613728E-07  4.04038771E-08 -3.48501110E-04 -6.89558915E-05  1.11765050E-03
 -7.70673549E-06  5.34214803E-07 -1.49090212E-04 -1.57682177E-04  4.45423666E-05
 -5.86915917E-04  9.55240083E-05  1.61329072E-05  4.39029580E-05 -6.39440565E-07
  1.29427868E-04 -1.33065795E-04 -1.36727976E-06  1.53718438E-05  2.38625644E-03
 -6.41636140E-05  3.69861433E-05  1.29040598E-05  1.15649501E-04  6.93503655E-04
 -5.42463736E-04  4.11498014E-04  1.50310395E-05  2.35836786E-03 -5.73570738E-05
  3.70981481E-05  1.34244605E-05 -1.15786162E-04  6.90378059E-04 -5.36578677E-04
 -4.02952499E-04 -1.08209867E-04 -2.79109001E-04  4.36224595E-04 -3.54052205E-04
  9.04326204E-04 -2.29562275E-04  4.92673335E-04 -7.39920908E-07  3.00449316E-04
 -5.89265812E-04  3.87000457E-06  4.26886271E-04 -5.67299223E-04  6.32997844E-07
 -8.36412785E-05 -6.12237309E-08 -2.39747081E-07 -1.82442596E-04 -1.79581126E-04
  4.06040659E-04 -9.71122597E-07  3.27618962E-06  2.95611920E-04  5.64865693E-04
 -1.07944978E-04 -2.74771274E-04  4.07799971E-04 -2.18441602E-04  6.98818949E-04
 -1.80831200E-04 -5.23172162E-04 -7.82532435E-07  2.77189628E-04  6.11770295E-04
  3.71132421E-06  7.82935253E-04  6.17014507E-04  6.02189752E-07 -8.68947019E-05
  1.12007819E-08  2.74905144E-07 -2.07774029E-04  1.37034295E-04  4.07984628E-04
 -1.22669815E-06 -3.39981899E-06  3.22444163E-04 -5.46706204E-04  4.53353372E-01
  6.31154350E-01  1.37631707E-02 -1.29451256E-02 -1.12174498E-02 -4.25441274E-04
  1.23618262E-04 -2.02581939E-08 -1.33335793E-04 -8.48723460E-05 -2.27936301E-07
 -8.78556236E-04 -6.32291848E-04 -1.93877726E-06  5.55476860E-05  3.69780244E-07
 -1.89794762E-08 -6.62595981E-05 -3.27168029E-05  1.00032147E-04 -8.85154961E-07
  1.01328064E-07 -2.55861000E-04 -2.25996655E-04 -1.50201043E-03 -2.11500924E-03
  7.85534257E-05  3.62871122E-03  6.97915992E-03 -3.54967560E-04 -2.37798419E-05
  2.96154448E-07 -1.41621827E-03 -6.95211042E-05  3.96542727E-06 -1.83908171E-03
  6.33342594E-04  4.24698028E-06 -1.12634495E-04  9.15579376E-08 -4.21823927E-10
  9.58852104E-05  2.23899036E-05 -1.53166155E-04 -2.39339704E-06  2.22390959E-07
  7.42542350E-04 -2.42096576E-04  6.65502669E-04  3.85130109E-03  5.75607758E-04
  4.14046575E-05  3.19226698E-05 -1.39125930E-08  3.19795559E-04  1.24971597E-03
 -4.53431007E-07  5.95120319E-04  3.28460319E-03  5.60159188E-04  1.97043866E-05
  2.84506043E-05 -6.42448193E-05  2.93968489E-04 -5.25354219E-04  8.89220425E-04
  5.95542475E-04  3.28190988E-03  5.59540701E-04  1.98936607E-05  2.83107714E-05
  6.39835135E-05  2.92188920E-04 -5.25082250E-04 -8.88429023E-04  3.16484217E-06
  6.30429858E-06  1.11549592E-05 -2.19981948E-04 -9.55563434E-04  3.03538083E-05
 -1.22010910E-05  6.66030676E-08  2.12651642E-04 -3.06340995E-04  2.49091165E-07
  8.88599565E-05 -6.31817118E-04  3.57691092E-07 -3.74407268E-06 -8.57646335E-08
  1.18861427E-08  1.05185247E-05 -3.66063190E-06  7.58383400E-05  1.36353702E-07
  3.46395695E-07  1.23276313E-04  1.40641376E-04  2.97644760E-06  9.15540913E-06
 -1.20917684E-05 -1.42450603E-04 -5.93190406E-04  3.13364677E-05  1.73866009E-05
  1.08041230E-07  1.56430350E-04  2.98552589E-04 -9.94062464E-08  8.94575537E-05
  3.25988608E-04  3.26697706E-07 -2.49956548E-06 -5.13745588E-08 -3.76483160E-08
  1.68017458E-05  5.98377160E-06  4.52825724E-05  3.89255862E-08 -2.17628810E-07
  1.60784860E-04 -8.92010952E-05 -1.06485084E-02 -2.50071773E-02  5.26246751E-02
 -5.87070018E-02 -2.08202272E-01  3.85725837E-02  2.10533504E-03 -2.20228415E-05
 -2.17189199E-02  2.07398663E-02  7.79869993E-05 -3.84753515E-02  2.00330281E-02
 -3.70762927E-04 -3.72700445E-03 -1.47398482E-05 -1.73002302E-07  1.11272159E-02
  3.68892827E-04 -2.52411480E-02 -1.68415712E-04 -3.62436368E-05 -2.08044217E-02
  2.05218882E-02 -6.01193071E-02 -1.37221785E-01  2.79269658E-01  2.48042706E-01
  2.63484952E-01  9.25945423E-02  4.74146170E-03  2.68023497E-04 -8.59302005E-02
 -1.69187527E-02 -1.41517903E-05 -1.20136060E-01 -4.09694288E-02  4.41966660E-04
 -2.45934812E-02  2.33680466E-05  1.36063204E-06 -3.28053931E-02 -3.55045933E-03
  2.36438760E-02 -2.77993694E-04 -4.31798174E-05  6.50365019E-02  2.22242677E-02
  1.68362343E-02  1.54514474E-02 -3.47610404E-02  2.11915658E-03  5.13886168E-03
 -9.73914292E-06  1.38043053E-02  7.65506221E-03 -3.22535977E-05  1.63990830E-02
  4.92684111E-03 -5.46459206E-03  9.06252317E-04 -1.97865217E-03  2.97276201E-03
 -5.11460319E-03 -3.93623868E-03 -5.83167594E-03  1.63977436E-02  4.62100209E-03
 -5.46073349E-03  9.13899071E-04 -1.96688806E-03 -2.98218196E-03 -5.07739626E-03
 -3.89776226E-03  5.97088486E-03 -5.74113202E-02 -1.46136984E-01  2.94248716E-01
  2.78268983E-01 -3.91136620E-02 -4.62768537E-02  9.43015360E-02 -8.89087692E-05
  1.36824206E-02 -7.97580429E-04  3.45399626E-05  4.53911893E-02 -5.19500928E-02
  5.17595895E-05 -7.13190470E-03  6.15788206E-06 -2.68684780E-05 -8.72517988E-03
 -1.00900186E-02  1.40553364E-02 -2.13882099E-05  6.87102782E-05 -8.59972508E-04
  1.96360387E-02 -5.71602070E-02 -1.45515481E-01  2.93086737E-01  2.75854240E-01
 -2.99625052E-02 -3.56290242E-02 -9.84111512E-02 -8.81943564E-05  9.87186833E-03
  2.54766107E-03  4.11180066E-05  3.03421487E-02  5.72956511E-02  7.50506763E-05
 -7.10981587E-03  2.52015174E-06  2.71367447E-05 -1.07194787E-02  7.93691373E-03
  1.41508419E-02 -7.87748926E-06 -7.11748111E-05  4.82411618E-03 -1.85406557E-02
 -3.93774346E-04 -8.88833039E-04  1.88322880E-03 -1.57088778E-03 -7.25288241E-03
  5.19207592E-04  1.56442620E-02 -3.22116368E-07 -9.59048828E-03  4.08359165E-03
 -7.60519034E-06  3.57100588E-03 -7.99087384E-02 -1.39315086E-04  1.39775611E-04
  5.55647916E-07 -1.31137557E-05 -3.58007228E-04  6.90317000E-03 -5.46043081E-03