 Entering Gaussian System, Link 0=g09
 Input=y.inp
 Output=y.log
 Initial command:
 /opt/g09/l1.exe "/scratch/data/esther/gaussian_scratch/Gau-24518.inp" -scrdir="/scratch/data/esther/gaussian_scratch/"
 Entering Link 1 = /opt/g09/l1.exe PID=     24520.
  
 Copyright (c) 1988,1990,1992,1993,1995,1998,2003,2009,2013,
            Gaussian, Inc.  All Rights Reserved.
  
 This is part of the Gaussian(R) 09 program.  It is based on
 the Gaussian(R) 03 system (copyright 2003, Gaussian, Inc.),
 the Gaussian(R) 98 system (copyright 1998, Gaussian, Inc.),
 the Gaussian(R) 94 system (copyright 1995, Gaussian, Inc.),
 the Gaussian 92(TM) system (copyright 1992, Gaussian, Inc.),
 the Gaussian 90(TM) system (copyright 1990, Gaussian, Inc.),
 the Gaussian 88(TM) system (copyright 1988, Gaussian, Inc.),
 the Gaussian 86(TM) system (copyright 1986, Carnegie Mellon
 University), and the Gaussian 82(TM) system (copyright 1983,
 Carnegie Mellon University). Gaussian is a federally registered
 trademark of Gaussian, Inc.
  
 This software contains proprietary and confidential information,
 including trade secrets, belonging to Gaussian, Inc.
  
 This software is provided under written license and may be
 used, copied, transmitted, or stored only in accord with that
 written license.
  
 The following legend is applicable only to US Government
 contracts under FAR:
  
                    RESTRICTED RIGHTS LEGEND
  
 Use, reproduction and disclosure by the US Government is
 subject to restrictions as set forth in subparagraphs (a)
 and (c) of the Commercial Computer Software - Restricted
 Rights clause in FAR 52.227-19.
  
 Gaussian, Inc.
 340 Quinnipiac St., Bldg. 40, Wallingford CT 06492
  
  
 ---------------------------------------------------------------
 Warning -- This program may not be used in any manner that
 competes with the business of Gaussian, Inc. or will provide
 assistance to any competitor of Gaussian, Inc.  The licensee
 of this program is prohibited from giving any competitor of
 Gaussian, Inc. access to this program.  By using this program,
 the user acknowledges that Gaussian, Inc. is engaged in the
 business of creating and licensing software in the field of
 computational chemistry and represents and warrants to the
 licensee that it is not a competitor of Gaussian, Inc. and that
 it will not use this program in any manner prohibited above.
 ---------------------------------------------------------------
  

 Cite this work as:
 Gaussian 09, Revision D.01,
 M. J. Frisch, G. W. Trucks, H. B. Schlegel, G. E. Scuseria, 
 M. A. Robb, J. R. Cheeseman, G. Scalmani, V. Barone, B. Mennucci, 
 G. A. Petersson, H. Nakatsuji, M. Caricato, X. Li, H. P. Hratchian, 
 A. F. Izmaylov, J. Bloino, G. Zheng, J. L. Sonnenberg, M. Hada, 
 M. Ehara, K. Toyota, R. Fukuda, J. Hasegawa, M. Ishida, T. Nakajima, 
 Y. Honda, O. Kitao, H. Nakai, T. Vreven, J. A. Montgomery, Jr., 
 J. E. Peralta, F. Ogliaro, M. Bearpark, J. J. Heyd, E. Brothers, 
 K. N. Kudin, V. N. Staroverov, T. Keith, R. Kobayashi, J. Normand, 
 K. Raghavachari, A. Rendell, J. C. Burant, S. S. Iyengar, J. Tomasi, 
 M. Cossi, N. Rega, J. M. Millam, M. Klene, J. E. Knox, J. B. Cross, 
 V. Bakken, C. Adamo, J. Jaramillo, R. Gomperts, R. E. Stratmann, 
 O. Yazyev, A. J. Austin, R. Cammi, C. Pomelli, J. W. Ochterski, 
 R. L. Martin, K. Morokuma, V. G. Zakrzewski, G. A. Voth, 
 P. Salvador, J. J. Dannenberg, S. Dapprich, A. D. Daniels, 
 O. Farkas, J. B. Foresman, J. V. Ortiz, J. Cioslowski, 
 and D. J. Fox, Gaussian, Inc., Wallingford CT, 2013.
 
 ******************************************
 Gaussian 09:  ES64L-G09RevD.01 24-Apr-2013
                15-May-2019 
 ******************************************
 %nprocshared=4
 Will use up to    4 processors via shared memory.
 %Chk=y
 --------------------------------------------------------
 #p MP2/Gen SCF=(MAXCYCLE=1000) field=y+8 density=current
 --------------------------------------------------------
 1/30=1,38=1/1;
 2/12=2,17=6,18=5,40=1/2;
 3/5=7,11=9,14=2,15=8,16=1,25=1,30=1,71=1/1,2,3;
 4//1;
 5/5=2,7=1000,38=5/2;
 8/6=4,10=1/1;
 9/15=1,16=-3/6;
 10/5=1,13=10/2;
 6/7=2,8=2,9=2,10=2,22=-1/1;
 99/5=1,9=1/99;
 Leave Link    1 at Wed May 15 16:43:32 2019, MaxMem=           0 cpu:         0.2
 (Enter /opt/g09/l101.exe)
 -----
 polar
 -----
 Symbolic Z-matrix:
 Charge = -1 Multiplicity = 1
 C                     0.61315   1.29682  -0.00141 
 C                    -0.0545   -0.10173  -0.00109 
 H                    -0.13523   2.09474  -0.00094 
 H                     1.25559   1.39253  -0.88421 
 H                     1.25664   1.39247   0.88063 
 O                    -1.32413  -0.12348   0.0016 
 O                     0.75524  -1.08059   0.00056 
 
 NAtoms=      7 NQM=        7 NQMF=       0 NMMI=      0 NMMIF=      0
                NMic=       0 NMicF=      0.
                    Isotopes and Nuclear Properties:
 (Nuclear quadrupole moments (NQMom) in fm**2, nuclear magnetic moments (NMagM)
  in nuclear magnetons)

  Atom         1           2           3           4           5           6           7
 IAtWgt=          12          12           1           1           1          16          16
 AtmWgt=  12.0000000  12.0000000   1.0078250   1.0078250   1.0078250  15.9949146  15.9949146
 NucSpn=           0           0           1           1           1           0           0
 AtZEff=   0.0000000   0.0000000   0.0000000   0.0000000   0.0000000   0.0000000   0.0000000
 NQMom=    0.0000000   0.0000000   0.0000000   0.0000000   0.0000000   0.0000000   0.0000000
 NMagM=    0.0000000   0.0000000   2.7928460   2.7928460   2.7928460   0.0000000   0.0000000
 AtZNuc=   6.0000000   6.0000000   1.0000000   1.0000000   1.0000000   8.0000000   8.0000000
 Leave Link  101 at Wed May 15 16:43:32 2019, MaxMem=    33554432 cpu:         0.3
 (Enter /opt/g09/l202.exe)
                          Input orientation:                          
 ---------------------------------------------------------------------
 Center     Atomic      Atomic             Coordinates (Angstroms)
 Number     Number       Type             X           Y           Z
 ---------------------------------------------------------------------
      1          6           0        0.613146    1.296818   -0.001409
      2          6           0       -0.054499   -0.101728   -0.001089
      3          1           0       -0.135232    2.094736   -0.000937
      4          1           0        1.255590    1.392531   -0.884205
      5          1           0        1.256638    1.392473    0.880634
      6          8           0       -1.324128   -0.123477    0.001602
      7          8           0        0.755237   -1.080593    0.000555
 ---------------------------------------------------------------------
                    Distance matrix (angstroms):
                    1          2          3          4          5
     1  C    0.000000
     2  C    1.549735   0.000000
     3  H    1.093958   2.197947   0.000000
     4  H    1.096004   2.174635   1.790989   0.000000
     5  H    1.096007   2.174661   1.790989   1.764840   0.000000
     6  O    2.402140   1.269818   2.516733   3.120557   3.119480
     7  O    2.381654   1.270375   3.297826   2.673855   2.672452
                    6          7
     6  O    0.000000
     7  O    2.289068   0.000000
 Stoichiometry    C2H3O2(1-)
 Framework group  C1[X(C2H3O2)]
 Deg. of freedom    15
 Full point group                 C1      NOp   1
 Largest Abelian subgroup         C1      NOp   1
 Largest concise Abelian subgroup C1      NOp   1
                         Standard orientation:                         
 ---------------------------------------------------------------------
 Center     Atomic      Atomic             Coordinates (Angstroms)
 Number     Number       Type             X           Y           Z
 ---------------------------------------------------------------------
      1          6           0       -1.346377   -0.060108    0.000151
      2          6           0        0.202110    0.002068   -0.001243
      3          1           0       -1.702832   -1.094362    0.000614
      4          1           0       -1.731829    0.463772   -0.882006
      5          1           0       -1.730286    0.464027    0.882833
      6          8           0        0.813848   -1.110682    0.000321
      7          8           0        0.689970    1.175032    0.000318
 ---------------------------------------------------------------------
 Rotational constants (GHZ):     11.2167440      9.9969936      5.4653418
 Leave Link  202 at Wed May 15 16:43:32 2019, MaxMem=    33554432 cpu:         0.0
 (Enter /opt/g09/l301.exe)
 General basis read from cards:  (5D, 7F)
 Centers:       1      2
 S 5 1.00
     Exponent=  5.2406353000D+03 Coefficients=  9.3700000000D-04
     Exponent=  7.8220480000D+02 Coefficients=  7.2280000000D-03
     Exponent=  1.7835083000D+02 Coefficients=  3.6344000000D-02
     Exponent=  5.0815942000D+01 Coefficients=  1.3060000000D-01
     Exponent=  1.6823562000D+01 Coefficients=  3.1893100000D-01
 S 2 1.00
     Exponent=  6.1757760000D+00 Coefficients=  4.3874200000D-01
     Exponent=  2.4180490000D+00 Coefficients=  2.1497400000D-01
 S 1 1.00
     Exponent=  5.1190000000D-01 Coefficients=  1.0000000000D+00
 S 1 1.00
     Exponent=  1.5659000000D-01 Coefficients=  1.0000000000D+00
 S 1 1.00
     Exponent=  4.7900000000D-02 Coefficients=  1.0000000000D+00
 P 4 1.00
     Exponent=  1.8841800000D+01 Coefficients=  1.3887000000D-02
     Exponent=  4.1592400000D+00 Coefficients=  8.6279000000D-02
     Exponent=  1.2067100000D+00 Coefficients=  2.8874400000D-01
     Exponent=  3.8554000000D-01 Coefficients=  4.9941100000D-01
 P 1 1.00
     Exponent=  1.2194000000D-01 Coefficients=  1.0000000000D+00
 P 1 1.00
     Exponent=  3.8568000000D-02 Coefficients=  1.0000000000D+00
 D 2 1.00
     Exponent=  1.2067000000D+00 Coefficients=  2.6285000000D-01
     Exponent=  3.8550000000D-01 Coefficients=  8.0430000000D-01
 D 2 1.00
     Exponent=  1.2190000000D-01 Coefficients=  6.5350000000D-01
     Exponent=  3.8600000000D-02 Coefficients=  8.6360000000D-01
 ****
 Centers:       3      4      5
 S 4 1.00
     Exponent=  3.3865014000D+01 Coefficients=  6.0680000000D-03
     Exponent=  5.0947880000D+00 Coefficients=  4.5316000000D-02
     Exponent=  1.1587860000D+00 Coefficients=  2.0284600000D-01
     Exponent=  3.2584000000D-01 Coefficients=  5.0370900000D-01
 S 1 1.00
     Exponent=  1.0274100000D-01 Coefficients=  1.0000000000D+00
 S 1 1.00
     Exponent=  3.2400000000D-02 Coefficients=  1.0000000000D+00
 P 2 1.00
     Exponent=  1.1588000000D+00 Coefficients=  1.8844000000D-01
     Exponent=  3.2580000000D-01 Coefficients=  8.8242000000D-01
 P 2 1.00
     Exponent=  1.0270000000D-01 Coefficients=  1.1780000000D-01
     Exponent=  3.2400000000D-02 Coefficients=  4.2000000000D-03
 ****
 Centers:       6      7
 S 5 1.00
     Exponent=  1.0662285000D+04 Coefficients=  7.9900000000D-04
     Exponent=  1.5997097000D+03 Coefficients=  6.1530000000D-03
     Exponent=  3.6472526000D+02 Coefficients=  3.1157000000D-02
     Exponent=  1.0365179000D+02 Coefficients=  1.1559600000D-01
     Exponent=  3.3905805000D+01 Coefficients=  3.0155200000D-01
 S 2 1.00
     Exponent=  1.2287469000D+01 Coefficients=  4.4487000000D-01
     Exponent=  4.7568050000D+00 Coefficients=  2.4317200000D-01
 S 1 1.00
     Exponent=  1.0042710000D+00 Coefficients=  1.0000000000D+00
 S 1 1.00
     Exponent=  3.0068600000D-01 Coefficients=  1.0000000000D+00
 S 1 1.00
     Exponent=  9.0030000000D-02 Coefficients=  1.0000000000D+00
 P 4 1.00
     Exponent=  3.4856463000D+01 Coefficients=  1.5648000000D-02
     Exponent=  7.8431310000D+00 Coefficients=  9.8197000000D-02
     Exponent=  2.3062490000D+00 Coefficients=  3.0776800000D-01
     Exponent=  7.2316400000D-01 Coefficients=  4.9247000000D-01
 P 1 1.00
     Exponent=  2.1488200000D-01 Coefficients=  1.0000000000D+00
 P 1 1.00
     Exponent=  6.3850000000D-02 Coefficients=  1.0000000000D+00
 D 2 1.00
     Exponent=  2.3062000000D+00 Coefficients=  2.0270000000D-01
     Exponent=  7.2320000000D-01 Coefficients=  5.7910000000D-01
 D 2 1.00
     Exponent=  2.1490000000D-01 Coefficients=  7.8545000000D-01
     Exponent=  6.3900000000D-02 Coefficients=  5.3387000000D-01
 ****
 Ernie: Thresh=  0.10000D-02 Tol=  0.10000D-05 Strict=F.
 The following finite field(s) will be applied:
 An electric field of              0.0000  0.0008  0.0000
 In input orientation:  7.07544433D-04 -3.73337348D-04 -3.16590720D-07
 There are   131 symmetry adapted cartesian basis functions of A   symmetry.
 There are   123 symmetry adapted basis functions of A   symmetry.
   123 basis functions,   262 primitive gaussians,   131 cartesian basis functions
    16 alpha electrons       16 beta electrons
       nuclear repulsion energy       111.1233895856 Hartrees.
 IExCor=    0 DFT=F Ex=HF Corr=None ExCW=0 ScaHFX=  1.000000
 ScaDFX=  1.000000  1.000000  1.000000  1.000000 ScalE2=  1.000000  1.000000
 IRadAn=      0 IRanWt=     -1 IRanGd=            0 ICorTp=0 IEmpDi=  4
 NAtoms=    7 NActive=    7 NUniq=    7 SFac= 1.00D+00 NAtFMM=   60 NAOKFM=F Big=F
 Integral buffers will be    131072 words long.
 Raffenetti 1 integral format.
 Two-electron integral symmetry is turned on.
 Leave Link  301 at Wed May 15 16:43:32 2019, MaxMem=    33554432 cpu:         0.2
 (Enter /opt/g09/l302.exe)
 NPDir=0 NMtPBC=     1 NCelOv=     1 NCel=       1 NClECP=     1 NCelD=      1
         NCelK=      1 NCelE2=     1 NClLst=     1 CellRange=     0.0.
 One-electron integrals computed using PRISM.
 NBasis=   123 RedAO= T EigKep=  7.45D-05  NBF=   123
 NBsUse=   123 1.00D-06 EigRej= -1.00D+00 NBFU=   123
 Leave Link  302 at Wed May 15 16:43:32 2019, MaxMem=    33554432 cpu:         0.4
 (Enter /opt/g09/l303.exe)
 DipDrv:  MaxL=1.
 The nuclear repulsion energy is now       111.1233895856 hartrees.
 Leave Link  303 at Wed May 15 16:43:32 2019, MaxMem=    33554432 cpu:         0.1
 (Enter /opt/g09/l401.exe)
 ExpMin= 3.24D-02 ExpMax= 1.07D+04 ExpMxC= 1.60D+03 IAcc=3 IRadAn=         5 AccDes= 0.00D+00
 Harris functional with IExCor=  205 and IRadAn=       5 diagonalized for initial guess.
 HarFok:  IExCor=  205 AccDes= 0.00D+00 IRadAn=         5 IDoV= 1 UseB2=F ITyADJ=14
 ICtDFT=  3500011 ScaDFX=  1.000000  1.000000  1.000000  1.000000
 FoFCou: FMM=F IPFlag=           0 FMFlag=      100000 FMFlg1=           0
         NFxFlg=           0 DoJE=T BraDBF=F KetDBF=T FulRan=T
         wScrn=  0.000000 ICntrl=     500 IOpCl=  0 I1Cent=   200000004 NGrid=           0
         NMat0=    1 NMatS0=      1 NMatT0=    0 NMatD0=    1 NMtDS0=    0 NMtDT0=    0
 Petite list used in FoFCou.
 Harris En= -227.710203183255    
 JPrj=0 DoOrth=F DoCkMO=F.
 Leave Link  401 at Wed May 15 16:43:33 2019, MaxMem=    33554432 cpu:         1.2
 (Enter /opt/g09/l502.exe)
 Closed shell SCF:
 Using DIIS extrapolation, IDIIS=  1040.
 Integral symmetry usage will be decided dynamically.
 Keep R1 ints in memory in canonical form, NReq=31291442.
 IVT=     1059773 IEndB=     1059773 NGot=    33554432 MDV=     3412909
 LenX=     3412909 LenY=     3395307
 Requested convergence on RMS density matrix=1.00D-08 within1000 cycles.
 Requested convergence on MAX density matrix=1.00D-06.
 Requested convergence on             energy=1.00D-06.
 No special actions if energy rises.
 FoFCou: FMM=F IPFlag=           0 FMFlag=           0 FMFlg1=           0
         NFxFlg=           0 DoJE=F BraDBF=F KetDBF=F FulRan=T
         wScrn=  0.000000 ICntrl=     600 IOpCl=  0 I1Cent=           0 NGrid=           0
         NMat0=    1 NMatS0=   7626 NMatT0=    0 NMatD0=    1 NMtDS0=    0 NMtDT0=    0
 Symmetry not used in FoFCou.
 CoulSu:  requested number of processors reduced to:   3 ShMem   1 Linda.

 Cycle   1  Pass 1  IDiag  1:
 E= -227.062638282522    
 DIIS: error= 4.76D-02 at cycle   1 NSaved=   1.
 NSaved= 1 IEnMin= 1 EnMin= -227.062638282522     IErMin= 1 ErrMin= 4.76D-02
 ErrMax= 4.76D-02  0.00D+00 EMaxC= 1.00D-01 BMatC= 4.47D-01 BMatP= 4.47D-01
 IDIUse=3 WtCom= 5.24D-01 WtEn= 4.76D-01
 Coeff-Com:  0.100D+01
 Coeff-En:   0.100D+01
 Coeff:      0.100D+01
 Gap=     0.569 Goal=   None    Shift=    0.000
 GapD=    0.569 DampG=2.000 DampE=0.500 DampFc=1.0000 IDamp=-1.
 RMSDP=1.75D-02 MaxDP=3.91D-01              OVMax= 1.45D-01

 Cycle   2  Pass 1  IDiag  1:
 E= -227.248991649277     Delta-E=       -0.186353366755 Rises=F Damp=F
 DIIS: error= 1.84D-02 at cycle   2 NSaved=   2.
 NSaved= 2 IEnMin= 2 EnMin= -227.248991649277     IErMin= 2 ErrMin= 1.84D-02
 ErrMax= 1.84D-02  0.00D+00 EMaxC= 1.00D-01 BMatC= 7.55D-02 BMatP= 4.47D-01
 IDIUse=3 WtCom= 8.16D-01 WtEn= 1.84D-01
 Coeff-Com:  0.237D+00 0.763D+00
 Coeff-En:   0.000D+00 0.100D+01
 Coeff:      0.193D+00 0.807D+00
 Gap=     0.374 Goal=   None    Shift=    0.000
 RMSDP=3.92D-03 MaxDP=6.45D-02 DE=-1.86D-01 OVMax= 6.65D-02

 Cycle   3  Pass 1  IDiag  1:
 E= -227.300044552553     Delta-E=       -0.051052903276 Rises=F Damp=F
 DIIS: error= 5.38D-03 at cycle   3 NSaved=   3.
 NSaved= 3 IEnMin= 3 EnMin= -227.300044552553     IErMin= 3 ErrMin= 5.38D-03
 ErrMax= 5.38D-03  0.00D+00 EMaxC= 1.00D-01 BMatC= 8.22D-03 BMatP= 7.55D-02
 IDIUse=3 WtCom= 9.46D-01 WtEn= 5.38D-02
 Coeff-Com: -0.833D-02 0.229D+00 0.779D+00
 Coeff-En:   0.000D+00 0.000D+00 0.100D+01
 Coeff:     -0.788D-02 0.217D+00 0.791D+00
 Gap=     0.342 Goal=   None    Shift=    0.000
 RMSDP=9.31D-04 MaxDP=2.01D-02 DE=-5.11D-02 OVMax= 1.88D-02

 Cycle   4  Pass 1  IDiag  1:
 E= -227.305663392585     Delta-E=       -0.005618840032 Rises=F Damp=F
 DIIS: error= 1.39D-03 at cycle   4 NSaved=   4.
 NSaved= 4 IEnMin= 4 EnMin= -227.305663392585     IErMin= 4 ErrMin= 1.39D-03
 ErrMax= 1.39D-03  0.00D+00 EMaxC= 1.00D-01 BMatC= 2.71D-04 BMatP= 8.22D-03
 IDIUse=3 WtCom= 9.86D-01 WtEn= 1.39D-02
 Coeff-Com: -0.751D-02 0.404D-01 0.225D+00 0.742D+00
 Coeff-En:   0.000D+00 0.000D+00 0.000D+00 0.100D+01
 Coeff:     -0.740D-02 0.399D-01 0.222D+00 0.746D+00
 Gap=     0.333 Goal=   None    Shift=    0.000
 RMSDP=2.69D-04 MaxDP=4.90D-03 DE=-5.62D-03 OVMax= 5.18D-03

 Cycle   5  Pass 1  IDiag  1:
 E= -227.305946697053     Delta-E=       -0.000283304467 Rises=F Damp=F
 DIIS: error= 2.87D-04 at cycle   5 NSaved=   5.
 NSaved= 5 IEnMin= 5 EnMin= -227.305946697053     IErMin= 5 ErrMin= 2.87D-04
 ErrMax= 2.87D-04  0.00D+00 EMaxC= 1.00D-01 BMatC= 1.53D-05 BMatP= 2.71D-04
 IDIUse=3 WtCom= 9.97D-01 WtEn= 2.87D-03
 Coeff-Com:  0.189D-02-0.266D-01-0.118D+00-0.929D-01 0.124D+01
 Coeff-En:   0.000D+00 0.000D+00 0.000D+00 0.000D+00 0.100D+01
 Coeff:      0.188D-02-0.266D-01-0.117D+00-0.926D-01 0.123D+01
 Gap=     0.333 Goal=   None    Shift=    0.000
 RMSDP=1.16D-04 MaxDP=2.90D-03 DE=-2.83D-04 OVMax= 2.73D-03

 Cycle   6  Pass 1  IDiag  1:
 E= -227.305975811778     Delta-E=       -0.000029114726 Rises=F Damp=F
 DIIS: error= 4.84D-05 at cycle   6 NSaved=   6.
 NSaved= 6 IEnMin= 6 EnMin= -227.305975811778     IErMin= 6 ErrMin= 4.84D-05
 ErrMax= 4.84D-05  0.00D+00 EMaxC= 1.00D-01 BMatC= 3.97D-07 BMatP= 1.53D-05
 IDIUse=1 WtCom= 1.00D+00 WtEn= 0.00D+00
 Coeff-Com:  0.312D-03-0.121D-02-0.653D-02-0.223D-01-0.402D-01 0.107D+01
 Coeff:      0.312D-03-0.121D-02-0.653D-02-0.223D-01-0.402D-01 0.107D+01
 Gap=     0.333 Goal=   None    Shift=    0.000
 RMSDP=2.09D-05 MaxDP=4.59D-04 DE=-2.91D-05 OVMax= 5.52D-04

 Cycle   7  Pass 1  IDiag  1:
 E= -227.305976810972     Delta-E=       -0.000000999194 Rises=F Damp=F
 DIIS: error= 1.42D-05 at cycle   7 NSaved=   7.
 NSaved= 7 IEnMin= 7 EnMin= -227.305976810972     IErMin= 7 ErrMin= 1.42D-05
 ErrMax= 1.42D-05  0.00D+00 EMaxC= 1.00D-01 BMatC= 6.84D-08 BMatP= 3.97D-07
 IDIUse=1 WtCom= 1.00D+00 WtEn= 0.00D+00
 Coeff-Com: -0.134D-03 0.238D-02 0.101D-01 0.544D-02-0.129D+00 0.215D+00
 Coeff-Com:  0.896D+00
 Coeff:     -0.134D-03 0.238D-02 0.101D-01 0.544D-02-0.129D+00 0.215D+00
 Coeff:      0.896D+00
 Gap=     0.333 Goal=   None    Shift=    0.000
 RMSDP=5.48D-06 MaxDP=1.26D-04 DE=-9.99D-07 OVMax= 1.62D-04

 Cycle   8  Pass 1  IDiag  1:
 E= -227.305976915547     Delta-E=       -0.000000104576 Rises=F Damp=F
 DIIS: error= 6.86D-06 at cycle   8 NSaved=   8.
 NSaved= 8 IEnMin= 8 EnMin= -227.305976915547     IErMin= 8 ErrMin= 6.86D-06
 ErrMax= 6.86D-06  0.00D+00 EMaxC= 1.00D-01 BMatC= 8.65D-09 BMatP= 6.84D-08
 IDIUse=1 WtCom= 1.00D+00 WtEn= 0.00D+00
 Coeff-Com: -0.688D-04 0.802D-03 0.332D-02 0.383D-02-0.311D-01-0.455D-01
 Coeff-Com:  0.217D+00 0.851D+00
 Coeff:     -0.688D-04 0.802D-03 0.332D-02 0.383D-02-0.311D-01-0.455D-01
 Coeff:      0.217D+00 0.851D+00
 Gap=     0.333 Goal=   None    Shift=    0.000
 RMSDP=1.74D-06 MaxDP=3.55D-05 DE=-1.05D-07 OVMax= 4.73D-05

 Cycle   9  Pass 1  IDiag  1:
 E= -227.305976928057     Delta-E=       -0.000000012509 Rises=F Damp=F
 DIIS: error= 1.94D-06 at cycle   9 NSaved=   9.
 NSaved= 9 IEnMin= 9 EnMin= -227.305976928057     IErMin= 9 ErrMin= 1.94D-06
 ErrMax= 1.94D-06  0.00D+00 EMaxC= 1.00D-01 BMatC= 1.27D-09 BMatP= 8.65D-09
 IDIUse=1 WtCom= 1.00D+00 WtEn= 0.00D+00
 Coeff-Com:  0.866D-05-0.202D-03-0.978D-03-0.403D-04 0.138D-01-0.380D-01
 Coeff-Com: -0.113D+00 0.167D+00 0.971D+00
 Coeff:      0.866D-05-0.202D-03-0.978D-03-0.403D-04 0.138D-01-0.380D-01
 Coeff:     -0.113D+00 0.167D+00 0.971D+00
 Gap=     0.333 Goal=   None    Shift=    0.000
 RMSDP=6.95D-07 MaxDP=1.43D-05 DE=-1.25D-08 OVMax= 2.13D-05

 Cycle  10  Pass 1  IDiag  1:
 E= -227.305976930221     Delta-E=       -0.000000002165 Rises=F Damp=F
 DIIS: error= 7.38D-07 at cycle  10 NSaved=  10.
 NSaved=10 IEnMin=10 EnMin= -227.305976930221     IErMin=10 ErrMin= 7.38D-07
 ErrMax= 7.38D-07  0.00D+00 EMaxC= 1.00D-01 BMatC= 7.50D-11 BMatP= 1.27D-09
 IDIUse=1 WtCom= 1.00D+00 WtEn= 0.00D+00
 Coeff-Com:  0.491D-05-0.544D-04-0.223D-03-0.275D-03 0.144D-02 0.980D-02
 Coeff-Com: -0.213D-01-0.828D-01-0.515D-01 0.114D+01
 Coeff:      0.491D-05-0.544D-04-0.223D-03-0.275D-03 0.144D-02 0.980D-02
 Coeff:     -0.213D-01-0.828D-01-0.515D-01 0.114D+01
 Gap=     0.333 Goal=   None    Shift=    0.000
 RMSDP=2.39D-07 MaxDP=5.90D-06 DE=-2.16D-09 OVMax= 6.96D-06

 Cycle  11  Pass 1  IDiag  1:
 E= -227.305976930434     Delta-E=       -0.000000000213 Rises=F Damp=F
 DIIS: error= 2.17D-07 at cycle  11 NSaved=  11.
 NSaved=11 IEnMin=11 EnMin= -227.305976930434     IErMin=11 ErrMin= 2.17D-07
 ErrMax= 2.17D-07  0.00D+00 EMaxC= 1.00D-01 BMatC= 7.48D-12 BMatP= 7.50D-11
 IDIUse=1 WtCom= 1.00D+00 WtEn= 0.00D+00
 Coeff-Com: -0.158D-05 0.279D-04 0.124D-03 0.799D-04-0.149D-02 0.168D-02
 Coeff-Com:  0.112D-01 0.766D-02-0.806D-01-0.246D+00 0.131D+01
 Coeff:     -0.158D-05 0.279D-04 0.124D-03 0.799D-04-0.149D-02 0.168D-02
 Coeff:      0.112D-01 0.766D-02-0.806D-01-0.246D+00 0.131D+01
 Gap=     0.333 Goal=   None    Shift=    0.000
 RMSDP=8.47D-08 MaxDP=2.41D-06 DE=-2.13D-10 OVMax= 3.18D-06

 Cycle  12  Pass 1  IDiag  1:
 E= -227.305976930463     Delta-E=       -0.000000000028 Rises=F Damp=F
 DIIS: error= 5.88D-08 at cycle  12 NSaved=  12.
 NSaved=12 IEnMin=12 EnMin= -227.305976930463     IErMin=12 ErrMin= 5.88D-08
 ErrMax= 5.88D-08  0.00D+00 EMaxC= 1.00D-01 BMatC= 7.05D-13 BMatP= 7.48D-12
 IDIUse=1 WtCom= 1.00D+00 WtEn= 0.00D+00
 Coeff-Com:  0.886D-07-0.455D-05-0.239D-04 0.218D-05 0.402D-03-0.162D-02
 Coeff-Com: -0.214D-02 0.847D-02 0.262D-01-0.433D-02-0.473D+00 0.145D+01
 Coeff:      0.886D-07-0.455D-05-0.239D-04 0.218D-05 0.402D-03-0.162D-02
 Coeff:     -0.214D-02 0.847D-02 0.262D-01-0.433D-02-0.473D+00 0.145D+01
 Gap=     0.333 Goal=   None    Shift=    0.000
 RMSDP=3.04D-08 MaxDP=7.72D-07 DE=-2.83D-11 OVMax= 1.19D-06

 Cycle  13  Pass 1  IDiag  1:
 E= -227.305976930465     Delta-E=       -0.000000000003 Rises=F Damp=F
 DIIS: error= 1.65D-08 at cycle  13 NSaved=  13.
 NSaved=13 IEnMin=13 EnMin= -227.305976930465     IErMin=13 ErrMin= 1.65D-08
 ErrMax= 1.65D-08  0.00D+00 EMaxC= 1.00D-01 BMatC= 5.27D-14 BMatP= 7.05D-13
 IDIUse=1 WtCom= 1.00D+00 WtEn= 0.00D+00
 Coeff-Com:  0.683D-07-0.228D-06 0.147D-05-0.642D-05-0.565D-04 0.527D-03
 Coeff-Com: -0.480D-04-0.293D-02-0.627D-02 0.162D-01 0.102D+00-0.583D+00
 Coeff-Com:  0.147D+01
 Coeff:      0.683D-07-0.228D-06 0.147D-05-0.642D-05-0.565D-04 0.527D-03
 Coeff:     -0.480D-04-0.293D-02-0.627D-02 0.162D-01 0.102D+00-0.583D+00
 Coeff:      0.147D+01
 Gap=     0.333 Goal=   None    Shift=    0.000
 RMSDP=7.80D-09 MaxDP=1.86D-07 DE=-2.96D-12 OVMax= 3.48D-07

 SCF Done:  E(RHF) =  -227.305976930     A.U. after   13 cycles
            NFock= 13  Conv=0.78D-08     -V/T= 2.0019
 KE= 2.268697278012D+02 PE=-7.661717101133D+02 EE= 2.008726157961D+02
 Leave Link  502 at Wed May 15 16:43:34 2019, MaxMem=    33554432 cpu:         3.1
 (Enter /opt/g09/l801.exe)
 ExpMin= 3.24D-02 ExpMax= 1.07D+04 ExpMxC= 1.60D+03 IAcc=3 IRadAn=         5 AccDes= 0.00D+00
 HarFok:  IExCor=  205 AccDes= 0.00D+00 IRadAn=         5 IDoV=-2 UseB2=F ITyADJ=14
 ICtDFT= 12500011 ScaDFX=  1.000000  1.000000  1.000000  1.000000
 Largest valence mixing into a core orbital is  1.59D-04
 Largest core mixing into a valence orbital is  4.31D-05
 Range of M.O.s used for correlation:     5   123
 NBasis=   123 NAE=    16 NBE=    16 NFC=     4 NFV=     0
 NROrb=    119 NOA=    12 NOB=    12 NVA=   107 NVB=   107

 **** Warning!!: The largest alpha MO coefficient is  0.34925580D+02

 Leave Link  801 at Wed May 15 16:43:34 2019, MaxMem=    33554432 cpu:         0.3
 (Enter /opt/g09/l906.exe)
 Frozen-core derivative calculation, NFC=   4 NFV=   0.
 FulOut=F Deriv=T AODrv=F NAtomX=     7
   MMem=          27  MDisk=          12 MDiskD=          12
  W3Min=      257808 MinDsk=      472606 NBas6D=         131
 NBas2D=        8820    NTT=        8646    LW2=     2040000
    MDV=    33331016 MDiskM=        3321 NBas2p=        8805
 Fully direct method using O(ONN) memory.
 IMap=   1   2   3   4   5   6   7   8   9  10  11  12  13  14  15  16
 JobTyp=1 Pass  1:  I=   5 to   5 NPSUse=  4 ParTrn=T ParDer=T DoDerP=T.
 JobTyp=1 Pass  2:  I=   6 to   6 NPSUse=  4 ParTrn=T ParDer=T DoDerP=T.
 JobTyp=1 Pass  3:  I=   7 to   7 NPSUse=  4 ParTrn=T ParDer=T DoDerP=T.
 JobTyp=1 Pass  4:  I=   8 to   8 NPSUse=  4 ParTrn=T ParDer=T DoDerP=T.
 JobTyp=1 Pass  5:  I=   9 to   9 NPSUse=  4 ParTrn=T ParDer=T DoDerP=T.
 JobTyp=1 Pass  6:  I=  10 to  10 NPSUse=  4 ParTrn=T ParDer=T DoDerP=T.
 JobTyp=1 Pass  7:  I=  11 to  11 NPSUse=  4 ParTrn=T ParDer=T DoDerP=T.
 JobTyp=1 Pass  8:  I=  12 to  12 NPSUse=  4 ParTrn=T ParDer=T DoDerP=T.
 JobTyp=1 Pass  9:  I=  13 to  13 NPSUse=  4 ParTrn=T ParDer=T DoDerP=T.
 JobTyp=1 Pass 10:  I=  14 to  14 NPSUse=  4 ParTrn=T ParDer=T DoDerP=T.
 JobTyp=1 Pass 11:  I=  15 to  15 NPSUse=  4 ParTrn=T ParDer=T DoDerP=T.
 JobTyp=1 Pass 12:  I=  16 to  16 NPSUse=  4 ParTrn=T ParDer=T DoDerP=T.
 Spin components of T(2) and E(2):
     alpha-alpha T2 =       0.3020858677D-01 E2=     -0.9172088075D-01
     alpha-beta  T2 =       0.1596103177D+00 E2=     -0.4978602957D+00
     beta-beta   T2 =       0.3020858677D-01 E2=     -0.9172088075D-01
 The integrals were generated  12 times.
 ANorm=    0.1104548546D+01
 E2 =    -0.6813020572D+00 EUMP2 =    -0.22798727898766D+03
 Leave Link  906 at Wed May 15 16:43:55 2019, MaxMem=    33554432 cpu:        83.3
 (Enter /opt/g09/l1002.exe)
 Minotr:  Closed shell wavefunction.
          Computing MP2/KS-MP2 derivatives.
          Using Z-Vector for PSCF gradient.
          Skipping F1 and S1 gradient terms here.
          Frozen-core window.
          Direct CPHF calculation.
          Differentiating once with respect to electric field.
                with respect to dipole field.
          Electric field/nuclear overlap derivatives assumed to be zero.
          Requested convergence is 1.0D-10 RMS, and 1.0D-09 maximum.
          NewPWx=F KeepS1=T KeepF1=T KeepIn=T MapXYZ=F SortEE=F KeepMc=T.
          MDV=      33554253 using IRadAn=       0.
 Keep R1 ints in memory in canonical form, NReq=30232728.
 FoFCou: FMM=F IPFlag=           0 FMFlag=           0 FMFlg1=           0
         NFxFlg=           0 DoJE=F BraDBF=F KetDBF=F FulRan=T
         wScrn=  0.000000 ICntrl=     600 IOpCl=  0 I1Cent=           0 NGrid=           0
         NMat0=    1 NMatS0=   7626 NMatT0=    0 NMatD0=    1 NMtDS0=    0 NMtDT0=    0
 Symmetry not used in FoFCou.
          Solving linear equations separately, MaxMat=       0.
          There are     1 degrees of freedom in the 1st order CPHF.  IDoFFX=0 NUNeed=     1.
 LinEq1:  Iter=  0 NonCon=     1 RMS=7.36D-03 Max=7.95D-02 NDo=     1
 AX will form     1 AO Fock derivatives at one time.
 LinEq1:  Iter=  1 NonCon=     1 RMS=2.17D-03 Max=1.90D-02 NDo=     1
 LinEq1:  Iter=  2 NonCon=     1 RMS=6.79D-04 Max=7.13D-03 NDo=     1
 LinEq1:  Iter=  3 NonCon=     1 RMS=1.08D-04 Max=1.01D-03 NDo=     1
 LinEq1:  Iter=  4 NonCon=     1 RMS=3.47D-05 Max=4.10D-04 NDo=     1
 LinEq1:  Iter=  5 NonCon=     1 RMS=1.03D-05 Max=7.81D-05 NDo=     1
 LinEq1:  Iter=  6 NonCon=     1 RMS=3.90D-06 Max=4.12D-05 NDo=     1
 LinEq1:  Iter=  7 NonCon=     1 RMS=1.54D-06 Max=1.21D-05 NDo=     1
 LinEq1:  Iter=  8 NonCon=     1 RMS=2.48D-07 Max=2.13D-06 NDo=     1
 LinEq1:  Iter=  9 NonCon=     1 RMS=6.49D-08 Max=5.79D-07 NDo=     1
 LinEq1:  Iter= 10 NonCon=     1 RMS=2.00D-08 Max=1.74D-07 NDo=     1
 LinEq1:  Iter= 11 NonCon=     1 RMS=3.88D-09 Max=4.68D-08 NDo=     1
 LinEq1:  Iter= 12 NonCon=     1 RMS=9.94D-10 Max=7.53D-09 NDo=     1
 LinEq1:  Iter= 13 NonCon=     1 RMS=2.14D-10 Max=2.39D-09 NDo=     1
 LinEq1:  Iter= 14 NonCon=     0 RMS=2.78D-11 Max=2.07D-10 NDo=     1
 Linear equations converged to 1.000D-10 1.000D-09 after    14 iterations.
 End of Minotr F.D. properties file   721 does not exist.
 End of Minotr F.D. properties file   722 does not exist.
 End of Minotr F.D. properties file   788 does not exist.
 Leave Link 1002 at Wed May 15 16:43:56 2019, MaxMem=    33554432 cpu:         3.2
 (Enter /opt/g09/l601.exe)
 Copying SCF densities to generalized density rwf, IOpCl= 0 IROHF=0.

 **********************************************************************

            Population analysis using the MP2 density.

 **********************************************************************

 Orbital symmetries:
       Occupied  (A) (A) (A) (A) (A) (A) (A) (A) (A) (A) (A) (A)
                 (A) (A) (A) (A)
       Virtual   (A) (A) (A) (A) (A) (A) (A) (A) (A) (A) (A) (A)
                 (A) (A) (A) (A) (A) (A) (A) (A) (A) (A) (A) (A)
                 (A) (A) (A) (A) (A) (A) (A) (A) (A) (A) (A) (A)
                 (A) (A) (A) (A) (A) (A) (A) (A) (A) (A) (A) (A)
                 (A) (A) (A) (A) (A) (A) (A) (A) (A) (A) (A) (A)
                 (A) (A) (A) (A) (A) (A) (A) (A) (A) (A) (A) (A)
                 (A) (A) (A) (A) (A) (A) (A) (A) (A) (A) (A) (A)
                 (A) (A) (A) (A) (A) (A) (A) (A) (A) (A) (A) (A)
                 (A) (A) (A) (A) (A) (A) (A) (A) (A) (A) (A)
 The electronic state is 1-A.
 Alpha  occ. eigenvalues --  -20.28989 -20.28797 -11.14100 -11.05590  -1.15342
 Alpha  occ. eigenvalues --   -1.05539  -0.79284  -0.51246  -0.41544  -0.41084
 Alpha  occ. eigenvalues --   -0.40977  -0.35787  -0.31280  -0.20135  -0.19436
 Alpha  occ. eigenvalues --   -0.18707
 Alpha virt. eigenvalues --    0.14561   0.15566   0.16131   0.19495   0.22779
 Alpha virt. eigenvalues --    0.23471   0.23611   0.24289   0.24305   0.28490
 Alpha virt. eigenvalues --    0.29943   0.30915   0.31686   0.35910   0.37193
 Alpha virt. eigenvalues --    0.38552   0.39241   0.40244   0.42402   0.43885
 Alpha virt. eigenvalues --    0.44717   0.46088   0.46341   0.46379   0.49932
 Alpha virt. eigenvalues --    0.51616   0.53622   0.53708   0.54373   0.54647
 Alpha virt. eigenvalues --    0.55544   0.56593   0.56718   0.58256   0.59572
 Alpha virt. eigenvalues --    0.61477   0.64276   0.64998   0.68580   0.69480
 Alpha virt. eigenvalues --    0.74778   0.75338   0.78027   0.84728   0.87498
 Alpha virt. eigenvalues --    0.88911   0.91528   0.92303   0.94071   0.95579
 Alpha virt. eigenvalues --    0.96751   0.99578   1.05649   1.07377   1.08983
 Alpha virt. eigenvalues --    1.10433   1.13415   1.14849   1.16393   1.16993
 Alpha virt. eigenvalues --    1.21366   1.22755   1.23876   1.28739   1.36078
 Alpha virt. eigenvalues --    1.38819   1.38942   1.44751   1.46946   1.58251
 Alpha virt. eigenvalues --    1.58298   1.63977   1.64268   1.73571   1.76416
 Alpha virt. eigenvalues --    1.80764   1.82706   1.88246   1.89047   1.96231
 Alpha virt. eigenvalues --    2.01055   2.03675   2.06245   2.25633   2.29536
 Alpha virt. eigenvalues --    2.45395   2.47362   2.54996   2.61537   2.74668
 Alpha virt. eigenvalues --    2.77719   2.83812   2.90429   2.90971   2.96405
 Alpha virt. eigenvalues --    3.02324   3.12281   3.17867   3.47501   3.51546
 Alpha virt. eigenvalues --    3.67270   3.75823   3.89462  22.91198  23.17724
 Alpha virt. eigenvalues --   44.46435  44.51660
          Condensed to atoms (all electrons):
               1          2          3          4          5          6
     1  C    6.784435  -2.058382  -0.893018  -0.559145  -0.556622   0.357017
     2  C   -2.058382   8.761867   0.567451   0.155733   0.155271  -0.470924
     3  H   -0.893018   0.567451   3.579770  -0.722692  -0.723024  -0.051545
     4  H   -0.559145   0.155733  -0.722692   3.339699  -0.512238  -0.055026
     5  H   -0.556622   0.155271  -0.723024  -0.512238   3.337936  -0.055069
     6  O    0.357017  -0.470924  -0.051545  -0.055026  -0.055069   8.854662
     7  O    0.266302  -0.370319  -0.083291   0.003548   0.003286  -0.134796
               7
     1  C    0.266302
     2  C   -0.370319
     3  H   -0.083291
     4  H    0.003548
     5  H    0.003286
     6  O   -0.134796
     7  O    8.816593
 Mulliken charges:
               1
     1  C    2.659413
     2  C   -0.740697
     3  H   -0.673652
     4  H   -0.649879
     5  H   -0.649541
     6  O   -0.444320
     7  O   -0.501323
 Sum of Mulliken charges =  -1.00000
 Mulliken charges with hydrogens summed into heavy atoms:
               1
     1  C    0.686341
     2  C   -0.740697
     6  O   -0.444320
     7  O   -0.501323
 Electronic spatial extent (au):  <R**2>=            262.2300
 Charge=             -1.0000 electrons
 Dipole moment (field-independent basis, Debye):
    X=             -3.7400    Y=             -0.2983    Z=             -0.0013  Tot=              3.7519
 Quadrupole moment (field-independent basis, Debye-Ang):
   XX=            -33.5550   YY=            -36.9274   ZZ=            -26.4885
   XY=              0.1861   XZ=             -0.0023   YZ=              0.0004
 Traceless Quadrupole moment (field-independent basis, Debye-Ang):
   XX=             -1.2314   YY=             -4.6038   ZZ=              5.8352
   XY=              0.1861   XZ=             -0.0023   YZ=              0.0004
 Octapole moment (field-independent basis, Debye-Ang**2):
  XXX=              4.0468  YYY=             -1.8024  ZZZ=              0.0064  XYY=             -5.7542
  XXY=              0.5303  XXZ=              0.0029  XZZ=              0.8036  YZZ=              0.3046
  YYZ=              0.0062  XYZ=             -0.0004
 Hexadecapole moment (field-independent basis, Debye-Ang**3):
 XXXX=           -216.7118 YYYY=           -165.9304 ZZZZ=            -39.5542 XXXY=             -0.3146
 XXXZ=             -0.0041 YYYX=              0.7546 YYYZ=              0.0011 ZZZX=              0.0005
 ZZZY=              0.0021 XXYY=            -62.7690 XXZZ=            -39.4197 YYZZ=            -32.6022
 XXYZ=              0.0000 YYXZ=              0.0022 ZZXY=             -0.7591
 N-N= 1.111233895856D+02 E-N=-7.657722601539D+02  KE= 2.273814463813D+02
 No NMR shielding tensors so no spin-rotation constants.
 Leave Link  601 at Wed May 15 16:43:56 2019, MaxMem=    33554432 cpu:         0.4
 (Enter /opt/g09/l9999.exe)
 1\1\GINC-RHO\SP\RMP2-FC\Gen\C2H3O2(1-)\ESTHER\15-May-2019\0\\#p MP2/Ge
 n SCF=(MAXCYCLE=1000) field=y+8 density=current\\polar\\-1,1\C,0,0.613
 1460756,1.2968175747,-0.0014086521\C,0,-0.0544987649,-0.1017278937,-0.
 0010885645\H,0,-0.1352324996,2.0947358178,-0.0009365176\H,0,1.25558974
 84,1.392531006,-0.8842054401\H,0,1.2566377172,1.3924730671,0.880634403
 \O,0,-1.3241280581,-0.1234767658,0.0016022929\O,0,0.7552370717,-1.0805
 934429,0.000555232\\Version=ES64L-G09RevD.01\State=1-A\HF=-227.3059769
 \MP2=-227.987279\RMSD=7.801e-09\Dipole=0.5828928,1.3561537,-0.0021203\
 Quadrupole=-2.9909572,-1.3473319,4.3382891,0.9567569,0.0066876,0.00516
 39\PG=C01 [X(C2H3O2)]\\@


 NOTHING RESEMBLES A NEW PHENOMENON AS MUCH AS A MISTAKE.

                               -- ENRICO FERMI (?)
 Job cpu time:       0 days  0 hours  1 minutes 32.8 seconds.
 File lengths (MBytes):  RWF=      8 Int=      0 D2E=      0 Chk=      3 Scr=      1
 Normal termination of Gaussian 09 at Wed May 15 16:43:56 2019.
