polar                                                                   
SP        RMP2-FC                                                     Gen                 
Number of atoms                            I                7
Info1-9                                    I   N=           9
          98          97           0           0           0         110
           1           2           1
Charge                                     I               -1
Multiplicity                               I                1
Number of electrons                        I               32
Number of alpha electrons                  I               16
Number of beta electrons                   I               16
Number of basis functions                  I              123
Number of independent functions            I              123
Number of point charges in /Mol/           I                0
Number of translation vectors              I                0
Atomic numbers                             I   N=           7
           6           6           1           1           1           8
           8
Nuclear charges                            R   N=           7
  6.00000000E+00  6.00000000E+00  1.00000000E+00  1.00000000E+00  1.00000000E+00
  8.00000000E+00  8.00000000E+00
Current cartesian coordinates              R   N=          21
 -2.54428286E+00 -1.13586773E-01  2.85538053E-04  3.81933111E-01  3.90875389E-03
 -2.34836320E-03 -3.21788690E+00 -2.06804530E+00  1.16054731E-03 -3.27268314E+00
  8.76401845E-01 -1.66675025E+00 -3.26976620E+00  8.76884631E-01  1.66831300E+00
  1.53794963E+00 -2.09888477E+00  6.06601768E-04  1.30385471E+00  2.22048813E+00
  6.00104543E-04
Force Field                                I                0
Int Atom Types                             I   N=           7
           0           0           0           0           0           0
           0
MM charges                                 R   N=           7
  0.00000000E+00  0.00000000E+00  0.00000000E+00  0.00000000E+00  0.00000000E+00
  0.00000000E+00  0.00000000E+00
Integer atomic weights                     I   N=           7
          12          12           1           1           1          16
          16
Real atomic weights                        R   N=           7
  1.20000000E+01  1.20000000E+01  1.00782504E+00  1.00782504E+00  1.00782504E+00
  1.59949146E+01  1.59949146E+01
Atom fragment info                         I   N=           7
           0           0           0           0           0           0
           0
Atom residue num                           I   N=           7
           0           0           0           0           0           0
           0
Nuclear spins                              I   N=           7
           0           0           1           1           1           0
           0
Nuclear ZEff                               R   N=           7
 -3.60000000E+00 -3.60000000E+00 -1.00000000E+00 -1.00000000E+00 -1.00000000E+00
 -5.60000000E+00 -5.60000000E+00
Nuclear ZNuc                               R   N=           7
  6.00000000E+00  6.00000000E+00  1.00000000E+00  1.00000000E+00  1.00000000E+00
  8.00000000E+00  8.00000000E+00
Nuclear QMom                               R   N=           7
  0.00000000E+00  0.00000000E+00  0.00000000E+00  0.00000000E+00  0.00000000E+00
  0.00000000E+00  0.00000000E+00
Nuclear GFac                               R   N=           7
  0.00000000E+00  0.00000000E+00  2.79284600E+00  2.79284600E+00  2.79284600E+00
  0.00000000E+00  0.00000000E+00
MicOpt                                     I   N=           7
          -1          -1          -1          -1          -1          -1
          -1
Number of contracted shells                I               55
Number of primitive shells                 I              110
Pure/Cartesian d shells                    I                0
Pure/Cartesian f shells                    I                0
Highest angular momentum                   I                2
Largest degree of contraction              I                5
Shell types                                I   N=          55
           0           0           0           0           0           1
           1           1          -2          -2           0           0
           0           0           0           1           1           1
          -2          -2           0           0           0           1
           1           0           0           0           1           1
           0           0           0           1           1           0
           0           0           0           0           1           1
           1          -2          -2           0           0           0
           0           0           1           1           1          -2
          -2
Number of primitives per shell             I   N=          55
           5           2           1           1           1           4
           1           1           2           2           5           2
           1           1           1           4           1           1
           2           2           4           1           1           2
           2           4           1           1           2           2
           4           1           1           2           2           5
           2           1           1           1           4           1
           1           2           2           5           2           1
           1           1           4           1           1           2
           2
Shell to atom map                          I   N=          55
           1           1           1           1           1           1
           1           1           1           1           2           2
           2           2           2           2           2           2
           2           2           3           3           3           3
           3           4           4           4           4           4
           5           5           5           5           5           6
           6           6           6           6           6           6
           6           6           6           7           7           7
           7           7           7           7           7           7
           7
Primitive exponents                        R   N=         110
  5.24063530E+03  7.82204800E+02  1.78350830E+02  5.08159420E+01  1.68235620E+01
  6.17577600E+00  2.41804900E+00  5.11900000E-01  1.56590000E-01  4.79000000E-02
  1.88418000E+01  4.15924000E+00  1.20671000E+00  3.85540000E-01  1.21940000E-01
  3.85680000E-02  1.20670000E+00  3.85500000E-01  1.21900000E-01  3.86000000E-02
  5.24063530E+03  7.82204800E+02  1.78350830E+02  5.08159420E+01  1.68235620E+01
  6.17577600E+00  2.41804900E+00  5.11900000E-01  1.56590000E-01  4.79000000E-02
  1.88418000E+01  4.15924000E+00  1.20671000E+00  3.85540000E-01  1.21940000E-01
  3.85680000E-02  1.20670000E+00  3.85500000E-01  1.21900000E-01  3.86000000E-02
  3.38650140E+01  5.09478800E+00  1.15878600E+00  3.25840000E-01  1.02741000E-01
  3.24000000E-02  1.15880000E+00  3.25800000E-01  1.02700000E-01  3.24000000E-02
  3.38650140E+01  5.09478800E+00  1.15878600E+00  3.25840000E-01  1.02741000E-01
  3.24000000E-02  1.15880000E+00  3.25800000E-01  1.02700000E-01  3.24000000E-02
  3.38650140E+01  5.09478800E+00  1.15878600E+00  3.25840000E-01  1.02741000E-01
  3.24000000E-02  1.15880000E+00  3.25800000E-01  1.02700000E-01  3.24000000E-02
  1.06622850E+04  1.59970970E+03  3.64725260E+02  1.03651790E+02  3.39058050E+01
  1.22874690E+01  4.75680500E+00  1.00427100E+00  3.00686000E-01  9.00300000E-02
  3.48564630E+01  7.84313100E+00  2.30624900E+00  7.23164000E-01  2.14882000E-01
  6.38500000E-02  2.30620000E+00  7.23200000E-01  2.14900000E-01  6.39000000E-02
  1.06622850E+04  1.59970970E+03  3.64725260E+02  1.03651790E+02  3.39058050E+01
  1.22874690E+01  4.75680500E+00  1.00427100E+00  3.00686000E-01  9.00300000E-02
  3.48564630E+01  7.84313100E+00  2.30624900E+00  7.23164000E-01  2.14882000E-01
  6.38500000E-02  2.30620000E+00  7.23200000E-01  2.14900000E-01  6.39000000E-02
Contraction coefficients                   R   N=         110
  2.06539993E-03  1.59324554E-02  8.01119476E-02  2.87877514E-01  7.03009673E-01
  6.94067370E-01  3.40077856E-01  1.00000000E+00  1.00000000E+00  1.00000000E+00
  1.80615059E-02  1.12214925E-01  3.75541979E-01  6.49536597E-01  1.00000000E+00
  1.00000000E+00  2.67978866E-01  8.19993920E-01  4.83796365E-01  6.39336711E-01
  2.06539993E-03  1.59324554E-02  8.01119476E-02  2.87877514E-01  7.03009673E-01
  6.94067370E-01  3.40077856E-01  1.00000000E+00  1.00000000E+00  1.00000000E+00
  1.80615059E-02  1.12214925E-01  3.75541979E-01  6.49536597E-01  1.00000000E+00
  1.00000000E+00  2.67978866E-01  8.19993920E-01  4.83796365E-01  6.39336711E-01
  8.76044950E-03  6.54232910E-02  2.92851374E-01  7.27211150E-01  1.00000000E+00
  1.00000000E+00  1.86447366E-01  8.73088966E-01  9.76214574E-01  3.48056130E-02
  8.76044950E-03  6.54232910E-02  2.92851374E-01  7.27211150E-01  1.00000000E+00
  1.00000000E+00  1.86447366E-01  8.73088966E-01  9.76214574E-01  3.48056130E-02
  8.76044950E-03  6.54232910E-02  2.92851374E-01  7.27211150E-01  1.00000000E+00
  1.00000000E+00  1.86447366E-01  8.73088966E-01  9.76214574E-01  3.48056130E-02
  1.90604745E-03  1.46782352E-02  7.43263084E-02  2.75759025E-01  7.19364732E-01
  6.69996511E-01  3.66229217E-01  1.00000000E+00  1.00000000E+00  1.00000000E+00
  1.99439284E-02  1.25155543E-01  3.92261182E-01  6.27670401E-01  1.00000000E+00
  1.00000000E+00  2.83613619E-01  8.10264660E-01  6.73833443E-01  4.58004278E-01
  1.90604745E-03  1.46782352E-02  7.43263084E-02  2.75759025E-01  7.19364732E-01
  6.69996511E-01  3.66229217E-01  1.00000000E+00  1.00000000E+00  1.00000000E+00
  1.99439284E-02  1.25155543E-01  3.92261182E-01  6.27670401E-01  1.00000000E+00
  1.00000000E+00  2.83613619E-01  8.10264660E-01  6.73833443E-01  4.58004278E-01
Coordinates of each shell                  R   N=         165
 -2.54428286E+00 -1.13586773E-01  2.85538053E-04 -2.54428286E+00 -1.13586773E-01
  2.85538053E-04 -2.54428286E+00 -1.13586773E-01  2.85538053E-04 -2.54428286E+00
 -1.13586773E-01  2.85538053E-04 -2.54428286E+00 -1.13586773E-01  2.85538053E-04
 -2.54428286E+00 -1.13586773E-01  2.85538053E-04 -2.54428286E+00 -1.13586773E-01
  2.85538053E-04 -2.54428286E+00 -1.13586773E-01  2.85538053E-04 -2.54428286E+00
 -1.13586773E-01  2.85538053E-04 -2.54428286E+00 -1.13586773E-01  2.85538053E-04
  3.81933111E-01  3.90875389E-03 -2.34836320E-03  3.81933111E-01  3.90875389E-03
 -2.34836320E-03  3.81933111E-01  3.90875389E-03 -2.34836320E-03  3.81933111E-01
  3.90875389E-03 -2.34836320E-03  3.81933111E-01  3.90875389E-03 -2.34836320E-03
  3.81933111E-01  3.90875389E-03 -2.34836320E-03  3.81933111E-01  3.90875389E-03
 -2.34836320E-03  3.81933111E-01  3.90875389E-03 -2.34836320E-03  3.81933111E-01
  3.90875389E-03 -2.34836320E-03  3.81933111E-01  3.90875389E-03 -2.34836320E-03
 -3.21788690E+00 -2.06804530E+00  1.16054731E-03 -3.21788690E+00 -2.06804530E+00
  1.16054731E-03 -3.21788690E+00 -2.06804530E+00  1.16054731E-03 -3.21788690E+00
 -2.06804530E+00  1.16054731E-03 -3.21788690E+00 -2.06804530E+00  1.16054731E-03
 -3.27268314E+00  8.76401845E-01 -1.66675025E+00 -3.27268314E+00  8.76401845E-01
 -1.66675025E+00 -3.27268314E+00  8.76401845E-01 -1.66675025E+00 -3.27268314E+00
  8.76401845E-01 -1.66675025E+00 -3.27268314E+00  8.76401845E-01 -1.66675025E+00
 -3.26976620E+00  8.76884631E-01  1.66831300E+00 -3.26976620E+00  8.76884631E-01
  1.66831300E+00 -3.26976620E+00  8.76884631E-01  1.66831300E+00 -3.26976620E+00
  8.76884631E-01  1.66831300E+00 -3.26976620E+00  8.76884631E-01  1.66831300E+00
  1.53794963E+00 -2.09888477E+00  6.06601768E-04  1.53794963E+00 -2.09888477E+00
  6.06601768E-04  1.53794963E+00 -2.09888477E+00  6.06601768E-04  1.53794963E+00
 -2.09888477E+00  6.06601768E-04  1.53794963E+00 -2.09888477E+00  6.06601768E-04
  1.53794963E+00 -2.09888477E+00  6.06601768E-04  1.53794963E+00 -2.09888477E+00
  6.06601768E-04  1.53794963E+00 -2.09888477E+00  6.06601768E-04  1.53794963E+00
 -2.09888477E+00  6.06601768E-04  1.53794963E+00 -2.09888477E+00  6.06601768E-04
  1.30385471E+00  2.22048813E+00  6.00104543E-04  1.30385471E+00  2.22048813E+00
  6.00104543E-04  1.30385471E+00  2.22048813E+00  6.00104543E-04  1.30385471E+00
  2.22048813E+00  6.00104543E-04  1.30385471E+00  2.22048813E+00  6.00104543E-04
  1.30385471E+00  2.22048813E+00  6.00104543E-04  1.30385471E+00  2.22048813E+00
  6.00104543E-04  1.30385471E+00  2.22048813E+00  6.00104543E-04  1.30385471E+00
  2.22048813E+00  6.00104543E-04  1.30385471E+00  2.22048813E+00  6.00104543E-04
Constraint Structure                       R   N=          21
 -2.54428286E+00 -1.13586773E-01  2.85538053E-04  3.81933111E-01  3.90875389E-03
 -2.34836320E-03 -3.21788690E+00 -2.06804530E+00  1.16054731E-03 -3.27268314E+00
  8.76401845E-01 -1.66675025E+00 -3.26976620E+00  8.76884631E-01  1.66831300E+00
  1.53794963E+00 -2.09888477E+00  6.06601768E-04  1.30385471E+00  2.22048813E+00
  6.00104543E-04
Num ILSW                                   I              100
ILSW                                       I   N=         100
           0           0           0           0           2           0
           0           0           0           0           0          -1
           0           0           0           0           0           0
           0           0           0           0           0           0
           1           0           0           0           0           0
           0           0      100000           0          -1           0
           0           0           0           0           0           0
           0           0           0           1           0           0
           0           0           1           0           0           0
           0           0           4          41           0           0
           0           0           0           0           0           0
           0           0           0           7           0           0
           0           0           0           0           0           0
           0           0           0           0           0           0
           0           0           0           0           0           0
           0           0           0           0           0           0
           0           0           0           0
Num RLSW                                   I               41
RLSW                                       R   N=          41
  1.00000000E+00  1.00000000E+00  1.00000000E+00  1.00000000E+00  1.00000000E+00
  0.00000000E+00  0.00000000E+00  1.00000000E+00  0.00000000E+00  0.00000000E+00
  0.00000000E+00  0.00000000E+00  1.00000000E+00  0.00000000E+00  0.00000000E+00
  0.00000000E+00  0.00000000E+00  1.00000000E+00  0.00000000E+00  0.00000000E+00
  0.00000000E+00  0.00000000E+00  1.00000000E+00  0.00000000E+00  0.00000000E+00
  0.00000000E+00  0.00000000E+00  1.00000000E+00  0.00000000E+00  0.00000000E+00
  0.00000000E+00  0.00000000E+00  1.00000000E+00  0.00000000E+00  0.00000000E+00
  0.00000000E+00  0.00000000E+00  0.00000000E+00  1.00000000E+00  1.00000000E+00
  0.00000000E+00
MxBond                                     I                4
NBond                                      I   N=           7
           4           3           1           1           1           1
           1
IBond                                      I   N=          28
           2           3           4           5           1           6
           7           0           1           0           0           0
           1           0           0           0           1           0
           0           0           2           0           0           0
           2           0           0           0
RBond                                      R   N=          28
  1.00000000E+00  1.00000000E+00  1.00000000E+00  1.00000000E+00  1.00000000E+00
  2.00000000E+00  2.00000000E+00  0.00000000E+00  1.00000000E+00  0.00000000E+00
  0.00000000E+00  0.00000000E+00  1.00000000E+00  0.00000000E+00  0.00000000E+00
  0.00000000E+00  1.00000000E+00  0.00000000E+00  0.00000000E+00  0.00000000E+00
  2.00000000E+00  0.00000000E+00  0.00000000E+00  0.00000000E+00  2.00000000E+00
  0.00000000E+00  0.00000000E+00  0.00000000E+00
Virial Ratio                               R      2.001922676613307E+00
SCF Energy                                 R     -2.273059082070481E+02
MP2 Energy                                 R     -2.279872135188101E+02
Total Energy                               R     -2.279872135188101E+02
Post-SCF wavefunction norm                 R      1.104548952394226E+00
RMS Density                                R      8.409591619535830E-09
External E-field                           R   N=          35
  0.00000000E+00  0.00000000E+00  0.00000000E+00  8.00000000E-04  0.00000000E+00
  0.00000000E+00  0.00000000E+00  0.00000000E+00  0.00000000E+00  0.00000000E+00
  0.00000000E+00  0.00000000E+00  0.00000000E+00  0.00000000E+00  0.00000000E+00
  0.00000000E+00  0.00000000E+00  0.00000000E+00  0.00000000E+00  0.00000000E+00
  0.00000000E+00  0.00000000E+00  0.00000000E+00  0.00000000E+00  0.00000000E+00
  0.00000000E+00  0.00000000E+00  0.00000000E+00  0.00000000E+00  0.00000000E+00
  0.00000000E+00  0.00000000E+00  0.00000000E+00  0.00000000E+00  0.00000000E+00
IOpCl                                      I                0
IROHF                                      I                0
Alpha Orbital Energies                     R   N=         123
 -2.02903644E+01 -2.02874285E+01 -1.11409992E+01 -1.10559550E+01 -1.15340218E+00
 -1.05535576E+00 -7.92880444E-01 -5.12462838E-01 -4.15479658E-01 -4.10907289E-01
 -4.09697465E-01 -3.57937692E-01 -3.12768676E-01 -2.01379400E-01 -1.94288621E-01
 -1.87017381E-01  1.45007243E-01  1.57027432E-01  1.59983309E-01  1.94895419E-01
  2.28008704E-01  2.33994426E-01  2.35879320E-01  2.42990236E-01  2.44243394E-01
  2.84667563E-01  2.98959196E-01  3.10135437E-01  3.15914466E-01  3.59037909E-01
  3.71817643E-01  3.85550612E-01  3.92674774E-01  4.02513779E-01  4.24222580E-01
  4.38463793E-01  4.46881913E-01  4.61149297E-01  4.62908293E-01  4.64331895E-01
  4.99140372E-01  5.16560342E-01  5.35667652E-01  5.37289925E-01  5.43654591E-01
  5.46429906E-01  5.55797668E-01  5.65380185E-01  5.67677674E-01  5.82891557E-01
  5.95340821E-01  6.14657030E-01  6.42864633E-01  6.49897269E-01  6.85133258E-01
  6.94971059E-01  7.47634431E-01  7.53354203E-01  7.79986992E-01  8.47150137E-01
  8.75448487E-01  8.89149867E-01  9.15069033E-01  9.22839335E-01  9.40194078E-01
  9.56167284E-01  9.68150180E-01  9.95327784E-01  1.05592294E+00  1.07362061E+00
  1.08998253E+00  1.10483303E+00  1.13367101E+00  1.14894876E+00  1.16385006E+00
  1.16988565E+00  1.21338504E+00  1.22765122E+00  1.23943144E+00  1.28718940E+00
  1.36099467E+00  1.38828891E+00  1.38905592E+00  1.44746180E+00  1.46939888E+00
  1.58273002E+00  1.58320907E+00  1.63922582E+00  1.64276184E+00  1.73543426E+00
  1.76398054E+00  1.80790218E+00  1.82716330E+00  1.88250143E+00  1.89035242E+00
  1.96208291E+00  2.01067957E+00  2.03705881E+00  2.06212009E+00  2.25638577E+00
  2.29529664E+00  2.45390084E+00  2.47360829E+00  2.54993985E+00  2.61536345E+00
  2.74636474E+00  2.77738343E+00  2.83823554E+00  2.90426159E+00  2.90947585E+00
  2.96401265E+00  3.02349342E+00  3.12286256E+00  3.17863755E+00  3.47508027E+00
  3.51545092E+00  3.67270665E+00  3.75828335E+00  3.89465290E+00  2.29119666E+01
  2.31771941E+01  4.44648878E+01  4.45161305E+01
Alpha MO coefficients                      R   N=       15129
 -5.57071498E-06  3.45815150E-05 -1.19348993E-04  4.65818832E-04 -2.67168322E-04
 -1.52183523E-04 -2.33237522E-06  3.05807544E-07 -3.60556908E-05  1.07451597E-03
  6.93436745E-07 -9.20520626E-04 -2.10698741E-03  1.37582160E-05 -6.34923216E-05
  9.76318687E-08 -6.20883226E-07 -1.57329248E-04  1.53975299E-04  4.17257986E-04
  6.33833583E-06  3.61782277E-06  1.60652113E-04 -1.04175524E-03 -2.40964183E-05
  4.10396905E-05  2.88092428E-04  6.56188274E-03  1.12608434E-03  2.11168050E-04
 -2.41487326E-04  1.04211194E-06  3.92201693E-03 -4.75226230E-03  7.65182767E-06
  5.28758110E-04  2.81189748E-03 -1.42115916E-05  5.49684033E-05  3.34285606E-07
  1.19453307E-06  3.67279828E-04  4.61410310E-04 -1.58829084E-04  7.87468982E-06
 -6.67836082E-07 -6.72286243E-04 -9.59766849E-04 -4.14813371E-05  2.04439489E-03
 -1.97660005E-05 -3.88464574E-05 -8.02741706E-05  1.10962838E-07 -3.75688810E-05
  4.98145379E-04  2.05208226E-06  2.86384884E-05 -2.40663288E-04 -3.26959186E-04
  1.16525318E-04 -5.40487822E-05  8.09373551E-06  3.56015119E-04 -1.75499053E-05
 -1.40246549E-04  2.97610154E-05 -2.48652895E-04 -3.25797059E-04  1.15336773E-04
 -5.40595510E-05 -7.98244387E-06  3.52051694E-04 -1.82851437E-05  1.42054692E-04
  4.19173305E-01  6.63530590E-01  1.52444900E-02 -6.22899948E-03 -5.90914453E-03
 -7.27561095E-04  1.32726420E-03  1.86570796E-07  1.51290626E-03 -3.10728143E-03
  3.07396142E-06  6.19956649E-04 -1.78237058E-03  1.95836884E-06 -1.19643237E-04
  4.65151524E-08  2.25026008E-07 -1.65101879E-05 -3.97714483E-05  4.71176148E-04
 -1.31904155E-06  1.36268018E-06  6.17912430E-04  7.38383080E-04 -2.49395001E-03
 -3.93606581E-03 -1.16671705E-04 -1.23541232E-04  1.82916428E-03  3.32938578E-05
  6.75821526E-05  2.91548226E-07 -8.20666879E-04  6.18138879E-04 -3.26768134E-06
 -8.18128443E-04 -6.13259247E-04 -2.20486471E-06 -6.58736916E-06  3.84235356E-07
 -8.93040033E-08  8.41242483E-05  5.73357374E-05  1.21155342E-05  1.13921853E-06
  1.99307213E-06  6.44004911E-04  2.80840784E-04 -6.72056936E-06  4.05946474E-05
 -1.98208863E-04  6.23164130E-04  3.71597325E-04 -1.73323871E-04 -4.12641772E-05
  3.16396512E-07  1.17774260E-03 -1.56492282E-03 -1.12050655E-05  2.52950232E-05
  1.60298740E-04  2.01819707E-05 -6.28502636E-07  1.74982163E-07  7.61765068E-07
 -1.28017730E-04 -1.07942736E-04  3.85492252E-04  7.76537208E-06 -8.26740803E-07
  3.92486836E-04 -2.24461881E-04 -2.45165266E-05  4.22613780E-05  3.34178500E-04
  4.93566953E-03 -6.00375330E-04  1.97925333E-04  2.66600414E-04  1.11632371E-06
  3.51469592E-03  5.67842632E-03  6.40529568E-06  5.15641422E-04 -3.81180421E-04
 -1.84348248E-05  8.95178908E-05  2.14229477E-07 -1.18789914E-06  4.71224274E-04
 -3.75058068E-04 -2.26259758E-04  9.94110483E-06  3.40138022E-06 -4.35459265E-04
 -2.31141309E-04 -6.61121150E-05 -5.78803074E-05  5.62997826E-04  5.12976865E-05
  2.79616362E-05  1.00009961E-06 -1.26858908E-04  1.12119818E-04 -6.83151359E-07
 -5.37934516E-06  9.71123250E-04 -2.42323294E-04 -9.73829090E-05  1.97944777E-05
  2.27872963E-05  1.94812455E-04  1.47287365E-04  3.50575003E-04 -5.16054673E-06
  1.01312445E-03 -2.43515435E-04 -9.76240590E-05  1.87574718E-05 -2.22909467E-05
  1.96493408E-04  1.41009353E-04 -3.64778217E-04  2.49415692E-03  3.96038789E-03
  5.45003320E-05 -9.57354137E-05  2.22797530E-03  3.89148411E-05 -4.83874252E-05
  2.76367344E-07 -9.25228500E-04 -5.94993408E-04 -3.19046272E-06 -1.18850355E-03
  4.75324867E-04 -2.37381495E-06 -1.32101156E-05  3.00524303E-07  1.53528648E-07
  8.92811367E-05 -3.39314446E-05  1.47396491E-05  1.75137594E-06 -2.05358525E-06
  6.67948777E-04 -2.56618920E-04  4.19171856E-01  6.63536688E-01  1.51890625E-02
 -5.91733275E-03 -5.62033125E-03 -5.99938268E-04 -1.40068788E-03  2.45925905E-07
  1.19790625E-03  3.08760815E-03  2.30839026E-06  6.68304378E-04  1.73605644E-03
  5.54932804E-08 -1.10879869E-04  1.06147939E-07 -2.37366866E-07 -1.94510871E-05
  4.47043763E-05  4.54036417E-04 -1.17937339E-06 -1.11814350E-06  6.50390177E-04
 -5.97451063E-04  1.41830224E-03  1.95094947E-03  3.20752450E-04 -7.52435346E-04
  2.93203217E-03  2.59075131E-04 -1.03380070E-06 -1.77548616E-07  1.51745746E-03
 -8.40297033E-04  5.63865257E-06  2.45731953E-04  9.97637830E-05 -2.25713468E-05
  5.12345219E-05  4.03966025E-07  1.19740192E-07  4.23594009E-05  1.33857570E-05
 -6.22024076E-04 -8.79430262E-06 -2.57330231E-06  2.40857870E-05 -1.03398845E-04
  4.53535965E-01  6.31405908E-01  1.18858568E-02 -1.76059184E-03 -5.78889493E-03
  7.18611800E-05 -3.04389955E-06 -4.00968491E-07  1.55170937E-03  1.21076719E-04
 -4.33244033E-06  3.50808392E-04  7.02277960E-05  1.74279408E-05 -5.04824813E-04
  2.98467454E-07  6.47810232E-08 -3.48099210E-04 -7.17110243E-05  1.11753927E-03
 -8.13300521E-06  5.71391962E-07 -1.51686877E-04 -1.42592827E-04  4.42443899E-05
 -5.90119342E-04  9.20054708E-05  1.59801985E-05  4.38224639E-05 -6.64162926E-07
  1.30045524E-04 -1.34925020E-04 -1.34437622E-06  1.56571525E-05  2.38630450E-03
 -6.30515410E-05  3.72356650E-05  1.30827953E-05  1.15634754E-04  6.93251696E-04
 -5.43630242E-04  4.12085748E-04  1.52756952E-05  2.35775495E-03 -5.60868313E-05
  3.73128522E-05  1.36141386E-05 -1.15771020E-04  6.90139307E-04 -5.37553619E-04
 -4.03187118E-04 -1.08173294E-04 -2.79250823E-04  4.39045494E-04 -3.63864094E-04
  8.64137438E-04 -2.29422354E-04  4.92022103E-04 -7.58948475E-07  3.11374691E-04
 -6.03701267E-04  3.92726289E-06  4.41212522E-04 -5.83745376E-04  5.79597959E-07
 -8.28703796E-05 -8.04358335E-08 -1.94915121E-07 -1.81415963E-04 -1.77936522E-04
  4.11230271E-04 -9.94641153E-07  3.34756261E-06  2.98449621E-04  5.71230867E-04
 -1.07981585E-04 -2.74592348E-04  4.04604004E-04 -2.07350241E-04  7.42144445E-04
 -1.80918247E-04 -5.23845043E-04 -8.06722078E-07  2.67551245E-04  5.94084532E-04
  3.68857079E-06  7.70187368E-04  5.96835873E-04  4.71736146E-07 -8.77660903E-05
 -1.94943464E-09  2.42851358E-07 -2.09257827E-04  1.38474518E-04  4.02251898E-04
 -1.22530514E-06 -3.41785888E-06  3.17570715E-04 -5.40533543E-04  4.53353350E-01
  6.31154317E-01  1.37633167E-02 -1.29447687E-02 -1.12194261E-02 -4.25787192E-04
  1.12497538E-04  1.14190985E-05 -1.32841789E-04 -7.37501661E-05 -8.30742435E-06
 -8.79441211E-04 -6.26908617E-04 -8.05194876E-06  5.47240356E-05 -4.49682718E-07
  1.08960770E-06 -6.68312983E-05 -3.22434265E-05  1.00211138E-04 -8.67148699E-07
  1.15908487E-08 -2.56276852E-04 -2.25498283E-04 -1.50292682E-03 -2.11630576E-03
  7.85612924E-05  3.62936580E-03  6.98289089E-03 -3.54964960E-04 -2.38448963E-05
  1.87202090E-07 -1.41525288E-03 -7.28490786E-05  6.27905991E-06 -1.83853652E-03
  6.31249217E-04  5.88728298E-06 -1.12708577E-04  2.91568521E-07 -8.86135914E-08
  9.61067094E-05  2.19125820E-05 -1.53799830E-04 -3.99648493E-06  1.20151406E-07
  7.42166445E-04 -2.40645038E-04  6.61413618E-04  3.85986029E-03  5.80595411E-04
  3.96704505E-05  2.70247708E-05 -2.97883867E-07  3.20654131E-04  1.25341226E-03
  1.92575847E-06  6.00834456E-04  3.27601891E-03  5.51804519E-04  2.22224406E-05
  2.49239924E-05 -5.86367635E-05  2.92159283E-04 -5.24080513E-04  8.86074010E-04
  5.93494521E-04  3.28190398E-03  5.62620424E-04  1.91704846E-05  2.94713649E-05
  6.56848643E-05  2.92069598E-04 -5.27961269E-04 -8.86970172E-04  3.17123537E-06
  6.30634120E-06  1.12873314E-05 -2.21268361E-04 -9.57704951E-04  3.04691884E-05
 -1.22428818E-05  4.36523810E-08  2.12546734E-04 -3.06994829E-04 -2.40862108E-07
  8.78275404E-05 -6.32404319E-04  4.23032673E-07 -3.71521682E-06 -1.04861248E-07
 -4.51274608E-08  1.05362001E-05 -3.68026667E-06  7.56369161E-05  4.93162333E-07
  2.04393415E-07  1.24206231E-04  1.40444163E-04  2.97034460E-06  9.13196185E-06
 -1.20588289E-05 -1.41771175E-04 -5.93485734E-04  3.11881833E-05  1.72823000E-05
  6.76716128E-08  1.56674967E-04  2.98465665E-04 -3.54316440E-07  8.94025885E-05
  3.25362156E-04  7.20206653E-07 -2.52405092E-06 -1.18610734E-08 -2.08072925E-08
  1.67834698E-05  5.97149924E-06  4.55968846E-05 -1.97245337E-07 -1.19389763E-07
  1.60226744E-04 -8.94262020E-05 -1.06494824E-02 -2.50094399E-02  5.26277459E-02
 -5.87001803E-02 -2.08190719E-01  3.85746710E-02  2.01156984E-03 -2.32972097E-06
 -2.16529349E-02  2.06149101E-02  1.23275304E-04 -3.84829493E-02  2.04059405E-02
 -4.09647391E-04 -3.72721694E-03 -9.91039962E-06 -7.22720471E-07  1.11300256E-02
  3.22169006E-04 -2.52393983E-02 -2.27109743E-04 -2.28046575E-05 -2.08251600E-02
  2.07023013E-02 -6.01191802E-02 -1.37221501E-01  2.79271821E-01  2.47962676E-01
  2.63545699E-01  9.26714198E-02  3.17624353E-03  3.27093274E-04 -8.59183307E-02
 -1.68247236E-02  5.53575890E-05 -1.20155927E-01 -4.11002077E-02  5.57819130E-04
 -2.45911619E-02  2.85218933E-05  1.91154104E-06 -3.27773603E-02 -3.80914126E-03
  2.36331747E-02 -3.38724417E-04 -3.84598681E-05  6.50125931E-02  2.27212721E-02
  1.68847320E-02  1.51290323E-02 -3.49160207E-02  2.12032590E-03  5.14720465E-03
 -7.67195496E-06  1.37910524E-02  7.56750982E-03 -2.92432968E-05  1.63614873E-02
  5.20224509E-03 -5.26995363E-03  8.94921313E-04 -1.97684485E-03  2.97237096E-03
 -5.11381271E-03 -3.97533805E-03 -5.73008270E-03  1.63910973E-02  4.62702709E-03
 -5.51539939E-03  9.05619658E-04 -1.96518291E-03 -2.97504277E-03 -5.10441715E-03
 -3.89364302E-03  5.94060104E-03 -5.77923481E-02 -1.47107341E-01  2.96188868E-01
  2.80229759E-01 -3.93069297E-02 -4.65921451E-02  9.46714512E-02 -3.81635485E-05
  1.36953219E-02 -1.04619891E-03  1.40750535E-04  4.56361183E-02 -5.23719722E-02
  9.08613612E-05 -7.17087129E-03  4.93838263E-06 -2.32062563E-05 -8.74022935E-03
 -1.01561904E-02  1.41932777E-02 -2.15168984E-05  7.98796732E-05 -7.17641561E-04
  1.97484185E-02 -5.67751612E-02 -1.44534632E-01  2.91122714E-01  2.73892703E-01
 -2.97804757E-02 -3.53608741E-02 -9.80015817E-02 -3.72696227E-05  9.86105539E-03
  2.28819346E-03  1.43450294E-04  3.01231330E-02  5.68591834E-02  9.87284374E-05
 -7.07084354E-03  1.27355830E-06  2.28804752E-05 -1.06895158E-02  7.87565207E-03
  1.40119708E-02 -5.17265862E-06 -7.86330202E-05  4.65655838E-03 -1.84463090E-02
 -4.82704273E-04 -1.09610859E-03  2.30866147E-03 -1.84275441E-03 -8.53958625E-03
  7.90966386E-04  1.56589342E-02 -2.56179576E-06 -9.62039101E-03  4.18027886E-03
 -1.20115301E-05  3.40599969E-03 -7.97365233E-02 -1.57399016E-04  1.13979997E-04
  1.03901168E-06 -1.16612072E-05 -2.81804069E-04  6.90600711E-03 -5.62055718E-03