
    -----------------------------------------------------------------------
          Psi4: An Open-Source Ab Initio Electronic Structure Package
                               Psi4 1.1 release

                         Git: Rev {HEAD} add49b9 


    R. M. Parrish, L. A. Burns, D. G. A. Smith, A. C. Simmonett,
    A. E. DePrince III, E. G. Hohenstein, U. Bozkaya, A. Yu. Sokolov,
    R. Di Remigio, R. M. Richard, J. F. Gonthier, A. M. James,
    H. R. McAlexander, A. Kumar, M. Saitow, X. Wang, B. P. Pritchard,
    P. Verma, H. F. Schaefer III, K. Patkowski, R. A. King, E. F. Valeev,
    F. A. Evangelista, J. M. Turney, T. D. Crawford, and C. D. Sherrill,
    J. Chem. Theory Comput. in press (2017).
    (doi: 10.1021/acs.jctc.7b00174)

    -----------------------------------------------------------------------


    Psi4 started on: Wednesday, 15 May 2019 12:03PM

    Process ID:  19348
    PSIDATADIR: /home/esther/psi4conda/share/psi4
    Memory:     500.0 MiB
    Threads:    4
    
  ==> Input File <==

--------------------------------------------------------------------------
molecule {
-1 1

    C            0.613146075611     1.296817574710    -0.001408652073
    C           -0.054498764942    -0.101727893662    -0.001088564526
    H           -0.135232499598     2.094735817787    -0.000936517573
    H            1.255589748430     1.392531005997    -0.884205440087
    H            1.256637717162     1.392473067087     0.880634402951
    O           -1.324128058114    -0.123476765848     0.001602292852
    O            0.755237071679    -1.080593442882     0.000555231991

symmetry c1
}



set {
    basis        Sadlej
    e_convergence   6
    d_convergence   8
    scf_type df
    df_basis_scf def2-tzvpp-jkfit
    df_basis_mp2 def2-tzvppd-ri

}

set perturb_h true
set perturb_with dipole
set perturb_dipole [0, 0, 0.0008]
property('mp2', properties=['grid_esp','dipole'])--------------------------------------------------------------------------

*** tstart() called on rho
*** at Wed May 15 12:03:57 2019

   => Loading Basis Set <=

    Name: SADLEJ
    Role: ORBITAL
    Keyword: BASIS
    atoms 1-2 entry C          line    32 file /home/esther/psi4conda/share/psi4/basis/sadlej.gbs 
    atoms 3-5 entry H          line    15 file /home/esther/psi4conda/share/psi4/basis/sadlej.gbs 
    atoms 6-7 entry O          line    96 file /home/esther/psi4conda/share/psi4/basis/sadlej.gbs 


         ---------------------------------------------------------
                                   SCF
            by Justin Turney, Rob Parrish, and Andy Simmonett
                              RHF Reference
                        4 Threads,    500 MiB Core
         ---------------------------------------------------------

  ==> Geometry <==

    Molecular point group: c1
    Full point group: C1

    Geometry (in Angstrom), charge = -1, multiplicity = 1:

       Center              X                  Y                   Z               Mass       
    ------------   -----------------  -----------------  -----------------  -----------------
           C          0.613146075611     1.296817574710    -0.001408652073    12.000000000000
           C         -0.054498764942    -0.101727893662    -0.001088564526    12.000000000000
           H         -0.135232499598     2.094735817787    -0.000936517573     1.007825032070
           H          1.255589748430     1.392531005997    -0.884205440087     1.007825032070
           H          1.256637717162     1.392473067087     0.880634402951     1.007825032070
           O         -1.324128058114    -0.123476765848     0.001602292852    15.994914619560
           O          0.755237071679    -1.080593442882     0.000555231991    15.994914619560

  Running in c1 symmetry.

  Rotational constants: A =      0.37415  B =      0.33346  C =      0.18230 [cm^-1]
  Rotational constants: A =  11216.74399  B =   9996.99363  C =   5465.34178 [MHz]
  Nuclear repulsion =  111.123386213301330

  Charge       = -1
  Multiplicity = 1
  Electrons    = 32
  Nalpha       = 16
  Nbeta        = 16

  ==> Algorithm <==

  SCF Algorithm Type is DF.
  DIIS enabled.
  MOM disabled.
  Fractional occupation disabled.
  Guess Type is SAD.
  Energy threshold   = 1.00e-06
  Density threshold  = 1.00e-08
  Integral threshold = 0.00e+00

  ==> Primary Basis <==

  Basis Set: SADLEJ
    Blend: SADLEJ
    Number of shells: 55
    Number of basis function: 123
    Number of Cartesian functions: 131
    Spherical Harmonics?: true
    Max angular momentum: 2

   => Loading Basis Set <=

    Name: DEF2-TZVPP-JKFIT
    Role: JKFIT
    Keyword: DF_BASIS_SCF
    atoms 1-2 entry C          line   202 file /home/esther/psi4conda/share/psi4/basis/def2-tzvpp-jkfit.gbs 
    atoms 3-5 entry H          line    22 file /home/esther/psi4conda/share/psi4/basis/def2-tzvpp-jkfit.gbs 
    atoms 6-7 entry O          line   322 file /home/esther/psi4conda/share/psi4/basis/def2-tzvpp-jkfit.gbs 

  ==> Pre-Iterations <==

   -------------------------------------------------------
    Irrep   Nso     Nmo     Nalpha   Nbeta   Ndocc  Nsocc
   -------------------------------------------------------
     A        123     123       0       0       0       0
   -------------------------------------------------------
    Total     123     123      16      16      16       0
   -------------------------------------------------------

  Perturbing V by 0.000800 mu(z).
  ==> Integral Setup <==

  ==> DFJK: Density-Fitted J/K Matrices <==

    J tasked:                  Yes
    K tasked:                  Yes
    wK tasked:                  No
    OpenMP threads:              4
    Integrals threads:           4
    Memory (MB):               375
    Algorithm:                Core
    Integral Cache:           NONE
    Schwarz Cutoff:          1E-12
    Fitting Condition:       1E-12

   => Auxiliary Basis Set <=

  Basis Set: DEF2-TZVPP-JKFIT
    Blend: DEF2-TZVPP-JKFIT
    Number of shells: 118
    Number of basis function: 358
    Number of Cartesian functions: 424
    Spherical Harmonics?: true
    Max angular momentum: 4

  Minimum eigenvalue in the overlap matrix is 7.4505979231E-05.
  Using Symmetric Orthogonalization.

  SCF Guess: Superposition of Atomic Densities via on-the-fly atomic UHF.

  ==> Iterations <==

                           Total Energy        Delta E     RMS |[F,P]|

   @DF-RHF iter   0:  -232.49763372549654   -2.32498e+02   5.37295e-02 
   @DF-RHF iter   1:  -227.13384102189215    5.36379e+00   9.13438e-03 
   @DF-RHF iter   2:  -227.25856138975550   -1.24720e-01   4.97587e-03 DIIS
   @DF-RHF iter   3:  -227.30069050945542   -4.21291e-02   1.38090e-03 DIIS
   @DF-RHF iter   4:  -227.30490564809273   -4.21514e-03   5.19769e-04 DIIS
   @DF-RHF iter   5:  -227.30571993634896   -8.14288e-04   1.39598e-04 DIIS
   @DF-RHF iter   6:  -227.30579333857909   -7.34022e-05   7.08825e-05 DIIS
   @DF-RHF iter   7:  -227.30580726479309   -1.39262e-05   1.76649e-05 DIIS
   @DF-RHF iter   8:  -227.30580922608928   -1.96130e-06   4.60918e-06 DIIS
   @DF-RHF iter   9:  -227.30580935490536   -1.28816e-07   1.62295e-06 DIIS
   @DF-RHF iter  10:  -227.30580937088305   -1.59777e-08   5.57438e-07 DIIS
   @DF-RHF iter  11:  -227.30580937336146   -2.47840e-09   1.98111e-07 DIIS
   @DF-RHF iter  12:  -227.30580937372784   -3.66384e-10   6.16361e-08 DIIS
   @DF-RHF iter  13:  -227.30580937376166   -3.38218e-11   1.21249e-08 DIIS
   @DF-RHF iter  14:  -227.30580937376268   -1.02318e-12   3.65467e-09 DIIS

  ==> Post-Iterations <==

    Orbital Energies (a.u.)
    -----------------------

    Doubly Occupied:                                                      

       1A    -20.290352     2A    -20.287418     3A    -11.141035  
       4A    -11.055951     5A     -1.153405     6A     -1.055353  
       7A     -0.792879     8A     -0.512460     9A     -0.415466  
      10A     -0.410897    11A     -0.409687    12A     -0.357925  
      13A     -0.312754    14A     -0.201368    15A     -0.194280  
      16A     -0.187000  

    Virtual:                                                              

      17A      0.144977    18A      0.157006    19A      0.159969  
      20A      0.194886    21A      0.228007    22A      0.233959  
      23A      0.235870    24A      0.243013    25A      0.244267  
      26A      0.284726    27A      0.298973    28A      0.310184  
      29A      0.315966    30A      0.359137    31A      0.371926  
      32A      0.385581    33A      0.392798    34A      0.402632  
      35A      0.424376    36A      0.438606    37A      0.446934  
      38A      0.461260    39A      0.462988    40A      0.464419  
      41A      0.499246    42A      0.516672    43A      0.535813  
      44A      0.537410    45A      0.543905    46A      0.546577  
      47A      0.556128    48A      0.565508    49A      0.567800  
      50A      0.582984    51A      0.595417    52A      0.614991  
      53A      0.643402    54A      0.650047    55A      0.685359  
      56A      0.695612    57A      0.747929    58A      0.753432  
      59A      0.780238    60A      0.847413    61A      0.876200  
      62A      0.889455    63A      0.915666    64A      0.923307  
      65A      0.940756    66A      0.956480    67A      0.968942  
      68A      0.995517    69A      1.056654    70A      1.074139  
      71A      1.090096    72A      1.105788    73A      1.134015  
      74A      1.149562    75A      1.164288    76A      1.170235  
      77A      1.213696    78A      1.228014    79A      1.239698  
      80A      1.287895    81A      1.361321    82A      1.388618  
      83A      1.389549    84A      1.447902    85A      1.469872  
      86A      1.583227    87A      1.583843    88A      1.639727  
      89A      1.643380    90A      1.735919    91A      1.764490  
      92A      1.808406    93A      1.827598    94A      1.883326  
      95A      1.891232    96A      1.962334    97A      2.011128  
      98A      2.037423    99A      2.062656   100A      2.257004  
     101A      2.295819   102A      2.454629   103A      2.474183  
     104A      2.550557   105A      2.616014   106A      2.746867  
     107A      2.777834   108A      2.839089   109A      2.905044  
     110A      2.910514   111A      2.965008   112A      3.024440  
     113A      3.123799   114A      3.179166   115A      3.475569  
     116A      3.515844   117A      3.673060   118A      3.758758  
     119A      3.895087   120A     22.914074   121A     23.179352  
     122A     44.486705   123A     44.537987  

    Final Occupation by Irrep:
              A 
    DOCC [    16 ]

  Energy converged.

  @DF-RHF Final Energy:  -227.30580937376268 with 0.000000 0.000000 0.000800 perturbation

   => Energetics <=

    Nuclear Repulsion Energy =            111.1233862133013304
    One-Electron Energy =                -539.3019318001174724
    Two-Electron Energy =                 200.8727362130534573
    DFT Exchange-Correlation Energy =       0.0000000000000000
    Empirical Dispersion Energy =           0.0000000000000000
    PCM Polarization Energy =               0.0000000000000000
    EFP Energy =                            0.0000000000000000
    Total Energy =                       -227.3058093737626848


*** tstop() called on rho at Wed May 15 12:03:59 2019
Module time:
	user time   =       4.40 seconds =       0.07 minutes
	system time =       0.08 seconds =       0.00 minutes
	total time  =          2 seconds =       0.03 minutes
Total time:
	user time   =       4.40 seconds =       0.07 minutes
	system time =       0.08 seconds =       0.00 minutes
	total time  =          2 seconds =       0.03 minutes
   => Loading Basis Set <=

    Name: DEF2-TZVPPD-RI
    Role: RIFIT
    Keyword: DF_BASIS_MP2
    atoms 1-2 entry C          line   222 file /home/esther/psi4conda/share/psi4/basis/def2-tzvppd-ri.gbs 
    atoms 3-5 entry H          line    21 file /home/esther/psi4conda/share/psi4/basis/def2-tzvppd-ri.gbs 
    atoms 6-7 entry O          line   332 file /home/esther/psi4conda/share/psi4/basis/def2-tzvppd-ri.gbs 


  //>>>>>>>>>>>>>>>>>>>>>>>>>>>>>>>>>>>//
  //               DFMP2               //
  //<<<<<<<<<<<<<<<<<<<<<<<<<<<<<<<<<<<//

	 --------------------------------------------------------
	                          DF-MP2                         
	      2nd-Order Density-Fitted Moller-Plesset Theory     
	              RMP2 Wavefunction,   4 Threads             
	                                                         
	        Rob Parrish, Justin Turney, Andy Simmonett,      
	           Ed Hohenstein, and C. David Sherrill          
	 --------------------------------------------------------

   => Auxiliary Basis Set <=

  Basis Set: DEF2-TZVPPD-RI
    Blend: DEF2-TZVPPD-RI
    Number of shells: 143
    Number of basis function: 485
    Number of Cartesian functions: 595
    Spherical Harmonics?: true
    Max angular momentum: 4

	 --------------------------------------------------------
	                 NBF =   123, NAUX =   485
	 --------------------------------------------------------
	   CLASS    FOCC     OCC    AOCC    AVIR     VIR    FVIR
	   PAIRS       0      16      16     107     107       0
	 --------------------------------------------------------


         ------------------------------------------------------------
                                     CPHF                           
                                  Rob Parrish                       
         ------------------------------------------------------------

  ==> Geometry <==

    Molecular point group: c1
    Full point group: C1

    Geometry (in Angstrom), charge = -1, multiplicity = 1:

       Center              X                  Y                   Z               Mass       
    ------------   -----------------  -----------------  -----------------  -----------------
           C          0.613146075611     1.296817574710    -0.001408652073    12.000000000000
           C         -0.054498764942    -0.101727893662    -0.001088564526    12.000000000000
           H         -0.135232499598     2.094735817787    -0.000936517573     1.007825032070
           H          1.255589748430     1.392531005997    -0.884205440087     1.007825032070
           H          1.256637717162     1.392473067087     0.880634402951     1.007825032070
           O         -1.324128058114    -0.123476765848     0.001602292852    15.994914619560
           O          0.755237071679    -1.080593442882     0.000555231991    15.994914619560

  Nuclear repulsion =  111.123389585563814
  Reference energy  = -227.305809373762685

  ==> Basis Set <==

  Basis Set: SADLEJ
    Blend: SADLEJ
    Number of shells: 55
    Number of basis function: 123
    Number of Cartesian functions: 131
    Spherical Harmonics?: true
    Max angular momentum: 2

  ==> CGRSolver (by Rob Parrish) <==

   Number of roots    =         1
   Preconditioning    =    JACOBI
   Convergence cutoff =     1E-06
   Maximum iterations =       100

  ==> CPHFRHamiltonian (by Rob Parrish) <== 

  ==> DFJK: Density-Fitted J/K Matrices <==

    J tasked:                  Yes
    K tasked:                  Yes
    wK tasked:                  No
    OpenMP threads:              4
    Integrals threads:           4
    Memory (MB):               375
    Algorithm:                Core
    Integral Cache:           NONE
    Schwarz Cutoff:          1E-12
    Fitting Condition:       1E-12

   => Auxiliary Basis Set <=

  Basis Set: DEF2-TZVPP-JKFIT
    Blend: DEF2-TZVPP-JKFIT
    Number of shells: 118
    Number of basis function: 358
    Number of Cartesian functions: 424
    Spherical Harmonics?: true
    Max angular momentum: 4

  ==> CPHF Iterations <==

  => Iterations <=

             Iter  Converged  Remaining    Residual
  CGR           1          0          1   1.637E-01
  CGR           2          0          1   3.117E-02
  CGR           3          0          1   7.511E-03
  CGR           4          0          1   2.844E-03
  CGR           5          0          1   7.127E-04
  CGR           6          0          1   3.388E-04
  CGR           7          0          1   7.649E-05
  CGR           8          0          1   1.665E-05
  CGR           9          0          1   6.151E-06
  CGR          10          0          1   1.365E-06
  CGR          11          1          0   2.885E-07

    CGRSolver converged.

	-----------------------------------------------------------
	 ==================> DF-MP2 Energies <==================== 
	-----------------------------------------------------------
	 Reference Energy          =    -227.3058093737626848 [Eh]
	 Singles Energy            =      -0.0000000000000088 [Eh]
	 Same-Spin Energy          =      -0.1870858617804486 [Eh]
	 Opposite-Spin Energy      =      -0.5541108001510957 [Eh]
	 Correlation Energy        =      -0.7411966619315531 [Eh]
	 Total Energy              =    -228.0470060356942383 [Eh]
	-----------------------------------------------------------
	 ================> DF-SCS-MP2 Energies <================== 
	-----------------------------------------------------------
	 SCS Same-Spin Scale       =       0.3333333333333333 [-]
	 SCS Opposite-Spin Scale   =       1.2000000000000000 [-]
	 SCS Same-Spin Energy      =      -0.0623619539268162 [Eh]
	 SCS Opposite-Spin Energy  =      -0.6649329601813149 [Eh]
	 SCS Correlation Energy    =      -0.7272949141081398 [Eh]
	 SCS Total Energy          =    -228.0331042878708274 [Eh]
	-----------------------------------------------------------



Properties will be evaluated at   0.000000,   0.000000,   0.000000 Bohr

Properties computed using the MP2 density matrix

  Nuclear Dipole Moment: (a.u.)
     X:     2.2256      Y:     4.5688      Z:    -0.0042

  Electronic Dipole Moment: (a.u.)
     X:    -1.6771      Y:    -3.3786      Z:    -0.0260

  Dipole Moment: (a.u.)
     X:     0.5485      Y:     1.1902      Z:    -0.0302     Total:     1.3109

  Dipole Moment: (Debye)
     X:     1.3943      Y:     3.0252      Z:    -0.0768     Total:     3.3319


 Electrostatic potential computed on the grid and written to grid_esp.dat

*** Psi4 exiting successfully. Buy a developer a beer!
