Generated by Psi4
     FORCE                        DF-MP2                        SADLEJ
Number of atoms                            I                7
Charge                                     I               -1
Multiplicity                               I                1
Number of electrons                        I               32
Number of alpha electrons                  I               16
Number of beta electrons                   I               16
Number of basis functions                  I              123
Number of independent functions            I              123
Atomic numbers                             I   N=           7
           6           6           1           1           1           8
           8
Nuclear charges                            R   N=           7
  6.00000000e+00  6.00000000e+00  1.00000000e+00  1.00000000e+00  1.00000000e+00
  8.00000000e+00  8.00000000e+00
Current cartesian coordinates              R   N=          21
  1.15867816e+00  2.45063006e+00 -2.66196663e-03 -1.02987740e-01 -1.92237859e-01
 -2.05708883e-03 -2.55552389e-01  3.95847702e+00 -1.76976173e-03  2.37272076e+00
  2.63150223e+00 -1.67090613e+00  2.37470113e+00  2.63139274e+00  1.66415784e+00
 -2.50223939e+00 -2.33337271e-01  3.02789468e-03  1.42719123e+00 -2.04202567e+00
  1.04923640e-03
Integer atomic weights                     I   N=           7
          12          12           1           1           1          15
          15
Real atomic weights                        R   N=           7
  1.20000000e+01  1.20000000e+01  1.00782503e+00  1.00782503e+00  1.00782503e+00
  1.59949146e+01  1.59949146e+01
Number of primitive shells                 I              110
Number of contracted shells                I               55
Pure/Cartesian d shells                    I                0
Pure/Cartesian f shells                    I                0
Highest angular momentum                   I                2
Largest degree of contraction              I                5
Shell types                                I   N=          55
           0           0           0           0           0           1
           1           1          -2          -2           0           0
           0           0           0           1           1           1
          -2          -2           0           0           0           1
           1           0           0           0           1           1
           0           0           0           1           1           0
           0           0           0           0           1           1
           1          -2          -2           0           0           0
           0           0           1           1           1          -2
          -2
Number of primitives per shell             I   N=          55
           5           2           1           1           1           4
           1           1           2           2           5           2
           1           1           1           4           1           1
           2           2           4           1           1           2
           2           4           1           1           2           2
           4           1           1           2           2           5
           2           1           1           1           4           1
           1           2           2           5           2           1
           1           1           4           1           1           2
           2
Shell to atom map                          I   N=          55
           1           1           1           1           1           1
           1           1           1           1           2           2
           2           2           2           2           2           2
           2           2           3           3           3           3
           3           4           4           4           4           4
           5           5           5           5           5           6
           6           6           6           6           6           6
           6           6           6           7           7           7
           7           7           7           7           7           7
           7
Primitive exponents                        R   N=         110
  5.24063530e+03  7.82204800e+02  1.78350830e+02  5.08159420e+01  1.68235620e+01
  6.17577600e+00  2.41804900e+00  5.11900000e-01  1.56590000e-01  4.79000000e-02
  1.88418000e+01  4.15924000e+00  1.20671000e+00  3.85540000e-01  1.21940000e-01
  3.85680000e-02  1.20670000e+00  3.85500000e-01  1.21900000e-01  3.86000000e-02
  5.24063530e+03  7.82204800e+02  1.78350830e+02  5.08159420e+01  1.68235620e+01
  6.17577600e+00  2.41804900e+00  5.11900000e-01  1.56590000e-01  4.79000000e-02
  1.88418000e+01  4.15924000e+00  1.20671000e+00  3.85540000e-01  1.21940000e-01
  3.85680000e-02  1.20670000e+00  3.85500000e-01  1.21900000e-01  3.86000000e-02
  3.38650140e+01  5.09478800e+00  1.15878600e+00  3.25840000e-01  1.02741000e-01
  3.24000000e-02  1.15880000e+00  3.25800000e-01  1.02700000e-01  3.24000000e-02
  3.38650140e+01  5.09478800e+00  1.15878600e+00  3.25840000e-01  1.02741000e-01
  3.24000000e-02  1.15880000e+00  3.25800000e-01  1.02700000e-01  3.24000000e-02
  3.38650140e+01  5.09478800e+00  1.15878600e+00  3.25840000e-01  1.02741000e-01
  3.24000000e-02  1.15880000e+00  3.25800000e-01  1.02700000e-01  3.24000000e-02
  1.06622850e+04  1.59970970e+03  3.64725260e+02  1.03651790e+02  3.39058050e+01
  1.22874690e+01  4.75680500e+00  1.00427100e+00  3.00686000e-01  9.00300000e-02
  3.48564630e+01  7.84313100e+00  2.30624900e+00  7.23164000e-01  2.14882000e-01
  6.38500000e-02  2.30620000e+00  7.23200000e-01  2.14900000e-01  6.39000000e-02
  1.06622850e+04  1.59970970e+03  3.64725260e+02  1.03651790e+02  3.39058050e+01
  1.22874690e+01  4.75680500e+00  1.00427100e+00  3.00686000e-01  9.00300000e-02
  3.48564630e+01  7.84313100e+00  2.30624900e+00  7.23164000e-01  2.14882000e-01
  6.38500000e-02  2.30620000e+00  7.23200000e-01  2.14900000e-01  6.39000000e-02
Contraction coefficients                   R   N=         110
  2.06539993e-03  1.59324554e-02  8.01119476e-02  2.87877514e-01  7.03009673e-01
  6.94067370e-01  3.40077856e-01  1.00000000e+00  1.00000000e+00  1.00000000e+00
  1.80615059e-02  1.12214925e-01  3.75541979e-01  6.49536597e-01  1.00000000e+00
  1.00000000e+00  2.67978866e-01  8.19993920e-01  4.83796365e-01  6.39336711e-01
  2.06539993e-03  1.59324554e-02  8.01119476e-02  2.87877514e-01  7.03009673e-01
  6.94067370e-01  3.40077856e-01  1.00000000e+00  1.00000000e+00  1.00000000e+00
  1.80615059e-02  1.12214925e-01  3.75541979e-01  6.49536597e-01  1.00000000e+00
  1.00000000e+00  2.67978866e-01  8.19993920e-01  4.83796365e-01  6.39336711e-01
  8.76044950e-03  6.54232910e-02  2.92851374e-01  7.27211150e-01  1.00000000e+00
  1.00000000e+00  1.86447366e-01  8.73088966e-01  9.76214574e-01  3.48056130e-02
  8.76044950e-03  6.54232910e-02  2.92851374e-01  7.27211150e-01  1.00000000e+00
  1.00000000e+00  1.86447366e-01  8.73088966e-01  9.76214574e-01  3.48056130e-02
  8.76044950e-03  6.54232910e-02  2.92851374e-01  7.27211150e-01  1.00000000e+00
  1.00000000e+00  1.86447366e-01  8.73088966e-01  9.76214574e-01  3.48056130e-02
  1.90604745e-03  1.46782352e-02  7.43263084e-02  2.75759025e-01  7.19364732e-01
  6.69996511e-01  3.66229217e-01  1.00000000e+00  1.00000000e+00  1.00000000e+00
  1.99439284e-02  1.25155543e-01  3.92261182e-01  6.27670401e-01  1.00000000e+00
  1.00000000e+00  2.83613619e-01  8.10264660e-01  6.73833443e-01  4.58004278e-01
  1.90604745e-03  1.46782352e-02  7.43263084e-02  2.75759025e-01  7.19364732e-01
  6.69996511e-01  3.66229217e-01  1.00000000e+00  1.00000000e+00  1.00000000e+00
  1.99439284e-02  1.25155543e-01  3.92261182e-01  6.27670401e-01  1.00000000e+00
  1.00000000e+00  2.83613619e-01  8.10264660e-01  6.73833443e-01  4.58004278e-01
Coordinates of each shell                  R   N=         165
  1.15867816e+00  2.45063006e+00 -2.66196663e-03  1.15867816e+00  2.45063006e+00
 -2.66196663e-03  1.15867816e+00  2.45063006e+00 -2.66196663e-03  1.15867816e+00
  2.45063006e+00 -2.66196663e-03  1.15867816e+00  2.45063006e+00 -2.66196663e-03
  1.15867816e+00  2.45063006e+00 -2.66196663e-03  1.15867816e+00  2.45063006e+00
 -2.66196663e-03  1.15867816e+00  2.45063006e+00 -2.66196663e-03  1.15867816e+00
  2.45063006e+00 -2.66196663e-03  1.15867816e+00  2.45063006e+00 -2.66196663e-03
 -1.02987740e-01 -1.92237859e-01 -2.05708883e-03 -1.02987740e-01 -1.92237859e-01
 -2.05708883e-03 -1.02987740e-01 -1.92237859e-01 -2.05708883e-03 -1.02987740e-01
 -1.92237859e-01 -2.05708883e-03 -1.02987740e-01 -1.92237859e-01 -2.05708883e-03
 -1.02987740e-01 -1.92237859e-01 -2.05708883e-03 -1.02987740e-01 -1.92237859e-01
 -2.05708883e-03 -1.02987740e-01 -1.92237859e-01 -2.05708883e-03 -1.02987740e-01
 -1.92237859e-01 -2.05708883e-03 -1.02987740e-01 -1.92237859e-01 -2.05708883e-03
 -2.55552389e-01  3.95847702e+00 -1.76976173e-03 -2.55552389e-01  3.95847702e+00
 -1.76976173e-03 -2.55552389e-01  3.95847702e+00 -1.76976173e-03 -2.55552389e-01
  3.95847702e+00 -1.76976173e-03 -2.55552389e-01  3.95847702e+00 -1.76976173e-03
  2.37272076e+00  2.63150223e+00 -1.67090613e+00  2.37272076e+00  2.63150223e+00
 -1.67090613e+00  2.37272076e+00  2.63150223e+00 -1.67090613e+00  2.37272076e+00
  2.63150223e+00 -1.67090613e+00  2.37272076e+00  2.63150223e+00 -1.67090613e+00
  2.37470113e+00  2.63139274e+00  1.66415784e+00  2.37470113e+00  2.63139274e+00
  1.66415784e+00  2.37470113e+00  2.63139274e+00  1.66415784e+00  2.37470113e+00
  2.63139274e+00  1.66415784e+00  2.37470113e+00  2.63139274e+00  1.66415784e+00
 -2.50223939e+00 -2.33337271e-01  3.02789468e-03 -2.50223939e+00 -2.33337271e-01
  3.02789468e-03 -2.50223939e+00 -2.33337271e-01  3.02789468e-03 -2.50223939e+00
 -2.33337271e-01  3.02789468e-03 -2.50223939e+00 -2.33337271e-01  3.02789468e-03
 -2.50223939e+00 -2.33337271e-01  3.02789468e-03 -2.50223939e+00 -2.33337271e-01
  3.02789468e-03 -2.50223939e+00 -2.33337271e-01  3.02789468e-03 -2.50223939e+00
 -2.33337271e-01  3.02789468e-03 -2.50223939e+00 -2.33337271e-01  3.02789468e-03
  1.42719123e+00 -2.04202567e+00  1.04923640e-03  1.42719123e+00 -2.04202567e+00
  1.04923640e-03  1.42719123e+00 -2.04202567e+00  1.04923640e-03  1.42719123e+00
 -2.04202567e+00  1.04923640e-03  1.42719123e+00 -2.04202567e+00  1.04923640e-03
  1.42719123e+00 -2.04202567e+00  1.04923640e-03  1.42719123e+00 -2.04202567e+00
  1.04923640e-03  1.42719123e+00 -2.04202567e+00  1.04923640e-03  1.42719123e+00
 -2.04202567e+00  1.04923640e-03  1.42719123e+00 -2.04202567e+00  1.04923640e-03
Total Energy                               R     -2.273063191030444e+02
Alpha Orbital Energies                     R   N=         123
 -9.64051365e-04 -4.25621807e-04 -1.49747133e-04 -1.12127597e-04 -4.67519247e-05
 -3.88809343e-05 -1.34240168e-05 -7.39561702e-06 -4.52993837e-06  1.53835398e-07
  3.71233043e-07  4.21900915e-07  7.03181547e-07  1.61333786e-06  2.22842323e-06
  2.89790566e-06  3.72697032e-06  4.36165948e-06  4.69329708e-06  5.51869720e-06
  6.40117869e-06  7.42036261e-06  9.22242472e-06  9.87542636e-06  1.18845258e-05
  1.19844537e-05  1.40778315e-05  1.46774827e-05  1.77316267e-05  2.07884960e-05
  3.00060442e-05  3.06016185e-05  3.09333964e-05  3.73481068e-05  3.79474248e-05
  4.27863571e-05  4.99420438e-05  5.01419340e-05  5.75730210e-05  6.03754957e-05
  6.31017361e-05  6.48266245e-05  7.31096185e-05  7.75927884e-05  9.02310435e-05
  1.08391500e-04  1.20940176e-04  1.42449023e-04  1.44466257e-04  1.48178542e-04
  1.51047452e-04  1.52032136e-04  1.67528700e-04  1.71580937e-04  1.84170703e-04
  2.00672565e-04  2.15071966e-04  2.17814644e-04  2.38369593e-04  2.45863304e-04
  2.73148234e-04  2.76806414e-04  3.07155417e-04  3.38611574e-04  3.87343392e-04
  4.64939575e-04  4.97193512e-04  5.35995252e-04  5.93205449e-04  6.32373116e-04
  6.41210075e-04  6.78688633e-04  6.81404588e-04  7.71693738e-04  7.76746803e-04
  8.10277444e-04  8.26123256e-04  8.62289330e-04  1.25730577e-03  1.50139902e-03
  2.25141632e-03  2.48713645e-03  2.56131764e-03  2.70455788e-03  2.80425591e-03
  3.01289280e-03  3.13436448e-03  3.67292177e-03  3.84906691e-03  3.85349574e-03
  3.92853126e-03  4.02178302e-03  4.11289947e-03  4.34109712e-03  4.47628832e-03
  6.15749236e-03  6.36588740e-03  6.98468557e-03  8.38242186e-03  8.39501562e-03
  8.72537224e-03  9.91347670e-03  9.95969841e-03  1.53633953e-02  1.56855526e-02
  1.81249828e-02  2.98185938e-02  9.69053297e-01  9.77139631e-01  9.77415829e-01
  9.79283496e-01  9.79637552e-01  9.82578634e-01  9.83381287e-01  9.83477291e-01
  9.83593183e-01  9.90483006e-01  9.91845993e-01  9.93008307e-01  9.99695729e-01
  9.99703688e-01  9.99853610e-01  9.99853637e-01
Alpha MO coefficients                      R   N=       15129
  2.68299129e-03  6.95950086e-03 -6.20304900e-02 -1.13184398e+00 -3.54278969e+00
  1.01459699e-01  2.10280710e-01 -1.61013538e-04  9.25823228e-02 -8.88896781e-01
 -2.70225458e-04 -3.97622743e-01  5.34011639e-02 -3.12616731e-03 -2.89231994e-02
 -3.15968113e-05 -5.74266549e-05 -1.09255723e-02  2.95316096e-03 -5.29851412e-01
  3.96561787e-04  1.10596579e-03 -2.40637109e-01  6.14797003e-03  1.94250822e-03
  1.27738544e-02 -3.91614407e-02  1.50337461e+00  2.46788285e+00 -5.33992077e-03
 -1.06072956e-02  3.86627418e-04  6.39261292e-01  1.57247733e+00  8.06059272e-04
  1.04286723e+00  2.09820768e+00  2.53558300e-03  7.53352932e-04  1.27087043e-04
  2.68603284e-04  2.49517926e-03 -1.79103170e-02 -1.22447945e-01  1.05595260e-03
  2.78191006e-03 -2.29829446e-01  3.29001731e-01  4.34694705e-03  8.11444230e-01
 -2.70408392e-01  2.75990799e-02 -3.35287884e-02 -1.67128806e-05  3.09906315e-01
 -1.30195151e-01 -8.05165227e-05  4.75760825e-02 -2.61772946e-01  5.50132028e-01
 -2.97213427e-02  4.03204986e-02 -7.37936178e-03  2.41504372e-01  3.39593095e-01
 -1.52933400e-01  4.73770427e-02 -2.62203147e-01  5.47590577e-01 -2.96573816e-02
  4.02201496e-02  7.33780237e-03  2.41673676e-01  3.39023366e-01  1.52557971e-01
  3.66389215e-03  1.46748112e-02 -1.20555960e-01  3.32677404e-01 -5.55040325e-01
  1.14069006e-01  1.84374480e-01 -1.89823707e-04 -5.56495099e-01 -9.33552882e-01
  1.18841996e-03 -3.96589923e-01  2.71624417e-02 -1.81514445e-05  8.79589964e-03
 -3.68134617e-05  1.30712205e-04 -2.20769224e-02 -4.06075012e-02  1.86880546e-01
  8.74102509e-04  4.37223803e-05 -1.95941954e-01 -1.49848946e-01  3.30163497e-03
  1.27148453e-02 -1.02629985e-01  2.83940494e-01 -3.42560070e-01  8.16977299e-02
  2.05839210e-01 -1.81513100e-04 -4.01056561e-01 -1.04766256e+00  1.19361468e-03
  2.49066598e-01 -1.48395488e-01 -9.39457645e-05  9.47013102e-03  9.55411416e-05
  3.49804903e-05  4.74290899e-02  1.30538060e-02  1.94066022e-01 -3.09553092e-04
  3.86847141e-04  1.69004843e-01  1.72822373e-01  5.43991499e-05 -3.51597946e-03
  3.51743542e-02 -7.84030497e-03 -1.42349070e-02  4.42585731e-03 -5.65531122e-03
 -1.46887849e-05  8.40291446e-01 -2.55875544e-01  2.21685110e-04  2.02857664e+00
 -1.18360067e+00 -1.87385901e-03 -2.91978489e-02 -1.43166096e-04  4.00592448e-05
 -5.83805064e-02 -5.90494471e-02  1.01401648e-01 -3.92085601e-04 -2.81604856e-04
 -2.65560746e-01  4.69662685e-02 -5.04070238e-05 -1.54333246e-03  1.16035643e-02
  2.84569693e-02 -6.42061738e-01  5.21964647e-02 -1.53807886e-02 -9.63714897e-05
 -5.40226342e-01  2.79033936e-01 -2.24498135e-04 -2.27058102e+00  9.35274799e-01
  1.00327174e-03 -1.17568949e-02  2.30006855e-05 -2.42182834e-07 -2.42504699e-02
 -2.08585144e-02  3.28921347e-02  2.11973033e-03  3.18539888e-04 -1.07693664e+00
 -1.02716871e+00  5.89776866e-02 -9.57589025e-03  1.08983476e+00  4.32189916e-02
  4.44446587e-02 -3.84187509e-05 -5.83889285e-02 -1.31377631e-01  1.44420248e-04
 -7.90121196e-03  1.39152407e-01 -3.84487736e-01 -8.40534281e-03 -6.68226710e-02
  1.15593190e-02  7.01860638e-02  7.13240774e-03 -1.08025169e-01 -7.70687474e-03
  1.36442856e-01 -3.82959718e-01 -8.41480532e-03 -6.66939182e-02 -1.16055486e-02
  7.12188856e-02  8.11259950e-03  1.08909466e-01 -8.60449178e-04 -2.21877430e-02
  1.25078825e-01 -2.23899702e-01  1.92075336e-01 -1.30234042e-01  2.04499676e-01
 -5.94249888e-04  4.85750121e-01 -9.86874746e-01  2.01270735e-03  2.07717454e-02
  6.56630743e-01 -1.74225547e-03 -9.50804991e-03  1.86248820e-05  5.42084054e-05
  2.02657901e-02 -2.57690005e-02 -1.73563858e-01 -4.47859776e-04  4.47329687e-04
  1.92560740e-01 -4.97799733e-02  1.07656298e-03  2.33713309e-02 -1.31483924e-01
  1.98867011e-01  4.86582092e-02 -2.32452793e-01 -2.72929400e-02  6.59355890e-04
  1.02517632e+00  2.40810782e-01 -2.22955773e-03 -4.84612278e-01 -3.26343329e-01
  2.11236426e-03  8.30200701e-03 -3.16548614e-05 -2.72129159e-05 -2.09520963e-02
  2.67327218e-02  1.39693476e-01 -5.07636288e-04 -1.94428394e-04 -3.31349572e-02
  2.39125245e-01  1.84529535e-05 -6.06429675e-05  2.54280124e-04 -1.50198941e-03
 -9.48716137e-04 -5.18348443e-05 -6.49285399e-05 -3.97359576e-02 -8.25239838e-03
  1.70365855e-03  1.04305506e+00 -3.32645436e-03 -3.38407848e-03 -2.48644522e-01
  3.37493990e-04 -5.72486173e-02 -1.52775243e-02  3.94977395e-04  5.54851998e-04
  7.11946347e-04 -2.34691770e-01 -1.13719635e-01 -3.25326576e-03  8.05682155e-06
 -1.49379982e-06  5.07423415e-06  5.49581131e-05 -7.01788210e-03 -3.92087568e-03
  2.47473556e-04 -1.25672906e-04 -9.08418497e-02  1.07706844e-02 -4.84510968e-03
 -5.97633863e-01  2.30184398e-03 -1.00556805e-03 -5.69648630e-01 -3.43079219e-04
  2.24972374e-01 -8.81497205e-02  6.67583688e-04  3.26241211e-04 -3.96741508e-03
  1.81050268e+00 -6.33952226e-01  8.18986758e-03  5.67192224e-03  2.89144422e-04
 -6.76255437e-03  4.13044472e-03  8.70010557e-05 -7.92404658e-04  2.18425408e-02
 -3.34911679e-03  2.60921801e-03  2.29666683e-02 -6.32481648e-03  1.66176200e+00
 -3.29742366e-01  4.14385951e-02 -2.00541901e-02 -3.37545619e-02 -4.89115436e-01
 -2.90116061e-01  5.69059075e-01  6.25537172e-03 -1.65293229e+00  3.30401817e-01
 -4.07488915e-02  2.09021835e-02 -3.37811346e-02  4.88540773e-01  2.90832574e-01
  5.63961614e-01 -2.34311881e-05  1.31099912e-04 -1.10981152e-03  4.97060057e-03
  7.85465026e-03 -7.48272682e-04 -9.49517478e-04 -2.95787697e-01  6.41850861e-03
  5.52796051e-03  1.34635860e+00  2.21819584e-03  2.12441185e-04  9.39552917e-01
 -1.30017522e-04  5.05287018e-02 -1.73633094e-04  1.85597648e-04  2.17175167e-04
 -2.72794697e-03  4.82737307e-01  1.57029056e-01  5.05547171e-04  1.20341624e-03
  2.87864097e-05 -1.12709132e-04  7.30466442e-04 -3.08508391e-03 -5.87411353e-03
  6.05870915e-04  7.59736915e-04  1.47572115e-01 -3.33704473e-03 -5.47214913e-03
 -7.56614604e-01 -4.87912916e-04  5.77934702e-04 -2.55288821e-01  2.26917295e-05
 -3.72860850e-03 -5.37196465e-03  2.21830297e-04  1.87909572e-05  1.20156628e-03
  1.29383064e-02 -2.33378703e-01  6.84667418e-04 -1.52446999e-03  1.03679617e-04
 -3.16863295e-04  1.58257369e-03 -4.54057234e-03 -2.72526748e-02 -1.44032582e-04
 -4.10525693e-04 -1.13760868e-02  2.52027884e-03 -4.82638887e-03  2.49158808e-01
 -1.83114529e-03 -2.01138937e-03 -7.98625090e-01 -3.75228535e-05 -8.16311228e-02
 -1.04144561e-01 -3.37639638e-04 -3.01321146e-05 -3.31534530e-04 -2.65455392e-01
  5.11202917e-01  1.18499666e-04  2.07284628e-03  3.09675882e-06 -2.11405080e-05
  2.04695219e-04 -2.13887866e-02  3.09394632e-02 -3.42275124e-04  4.26386862e-04
 -2.65618259e-01 -5.54079396e-03  3.08423067e-03 -1.44601960e+00  3.00705318e-03
  3.37288235e-03 -1.48417884e+00 -5.04938408e-04 -1.70722827e-02  1.43117420e-01
 -1.22929840e-04 -1.86829987e-04 -4.45775405e-03 -4.20690375e-02  6.99770925e-01
 -5.47379871e-03 -5.16741041e-04  4.29747269e-04  5.51328528e-03  1.07576386e-03
  3.54529294e-04  1.05837180e-04 -3.13328396e-02  2.85276823e-03  7.45577804e-04
 -2.67055315e-01 -4.90377336e-02  1.91474425e-01 -1.24709023e+00  1.00875356e-01
  1.10145428e-01 -6.97482254e-03 -4.05902409e-01 -1.66042457e-01  2.65665305e-01
  5.03223305e-02 -1.96163667e-01  1.25244404e+00 -1.01666728e-01 -1.10224829e-01
 -7.27369418e-03  4.08926365e-01  1.70292553e-01  2.66900567e-01  1.00172634e-05
  3.17008440e-05 -6.28488068e-04  3.37732312e-03 -4.40955347e-03 -4.53047771e-04
  2.19313732e-04 -1.94573486e-01  4.41253459e-03 -2.13255214e-03  7.09496857e-01
  8.11936154e-05  2.85219215e-03  8.28154081e-01 -1.06060176e-04  9.57175430e-02
 -6.82040109e-03  2.09309631e-04 -1.55082540e-04 -2.19832484e-03  3.19555061e-01
 -8.16513879e-02  2.38308042e-03  7.32838149e-04  4.97037056e-06  6.78522352e-05
 -1.12132596e-03  5.55226436e-03  3.55452136e-03  2.12679387e-04 -9.49125272e-04
 -3.22837024e-01 -3.52764415e-03  7.88462331e-03  1.31318434e+00  1.93255772e-03
  6.37402354e-03  9.74626724e-01 -1.10658867e-05 -8.10746733e-02  7.32154869e-02
 -2.89096294e-05 -2.62436172e-04 -3.31232055e-03 -2.88568209e-01  4.31282449e-01
 -2.60402078e-03 -1.92410865e-03  1.05462845e-03 -2.82841613e-03  1.32211367e-02
  2.36464088e-01 -2.82987743e-01  8.20191101e-03 -1.58897157e-02 -1.22980281e-04
  4.44118301e-01 -1.96453253e-01  3.19894063e-03 -1.62146671e+00  1.27189576e+00
 -8.28431157e-03 -4.80457658e-02 -2.16359067e-04  8.26593306e-05 -2.08533243e-02
 -3.94513008e-02  4.18470117e-01  1.94475655e-03  3.56223522e-04  1.51725767e+00
  1.15498107e+00  3.83452273e-03 -1.02526352e-02  4.92261529e-02  3.11269634e-02
  5.89433151e-01 -2.01785312e-01  9.30571045e-02  1.51569488e-04  1.24675887e+00
 -8.33527622e-01  7.91720502e-04  3.25862241e+00 -2.03664771e+00  5.94788247e-03
  9.36784911e-03  6.12911228e-04 -4.26090294e-04 -8.24699672e-02 -5.94316155e-02
  4.42130501e-02  4.66668760e-03 -2.94239168e-04  1.02098671e+00  7.27410315e-01
 -1.11273907e-01  3.61065790e+00  1.84699414e+00  2.45733972e-02  7.70191813e-02
 -5.84112328e-05  1.53811899e+00 -6.13819403e-01  1.01558452e-03  5.81388294e-02
 -1.87683146e+00 -1.07649742e+00 -2.94340860e-02 -5.01001778e-02 -5.01751803e-03
  6.26675910e-01 -2.39751134e-01 -5.58841816e-01  5.84581184e-02 -1.89955431e+00
 -1.07298468e+00 -2.93615944e-02 -4.97228440e-02  4.73258462e-03  6.30693014e-01
 -2.39036333e-01  5.66650457e-01 -1.04565383e-02  1.72719871e-02  2.34548251e-02
 -1.85298425e-01  1.22425068e+00  1.71771136e-01  8.04234977e-02 -7.66192458e-04
 -6.55518828e-01 -2.65093021e-01  3.47311572e-03  1.18798268e+00  1.67938497e+00
 -1.86083122e-03  3.40671603e-02  1.70629335e-04  7.82701043e-05 -4.61304161e-02
 -4.94737862e-02  2.77983120e-02  7.22888455e-04 -5.47017966e-05  1.55845831e-02
  3.16534052e-01  1.07813509e-02 -1.85769125e-02 -1.41729294e-03  4.89711852e-02
 -1.07286691e+00  3.22345928e-02 -1.71879113e-01  8.47624035e-04 -1.14174618e-01
  6.58376929e-01 -3.63357852e-03 -3.04258869e-01 -1.45661112e+00  5.10965212e-04
 -1.80417197e-02  1.80189289e-04 -1.68762958e-04 -5.55741646e-02 -4.04494400e-02
 -1.47020417e-01 -2.25004422e-04 -1.13792263e-03  2.23416321e-01  3.30301762e-02
 -3.62681375e-03  1.21266247e-02 -1.04195967e-01  1.04579472e+00  4.35350670e+00
  3.45053968e-02  1.12693115e-01 -1.84716705e-04  1.31246691e-01 -5.15439910e-01
  1.96363253e-03  2.56012752e-02  1.18571655e+00 -4.53205644e-03 -1.77833401e-02
 -2.13054443e-04 -1.74248987e-04 -1.06706149e-02 -6.90196571e-03  4.64931471e-01
 -1.31850146e-03  2.46391457e-03  2.60558646e-01 -7.99940123e-02  1.33401082e-02
 -4.47649986e-02  3.32649191e-01 -1.36335764e+00 -4.90815989e+00 -5.79295638e-02
 -1.48961260e-01 -6.97614406e-05  4.43303622e-01  9.58582734e-01 -3.27892358e-03
 -5.88233445e-01 -2.19356770e+00 -4.68345913e-03 -2.06403623e-04  3.46637664e-05
  1.24467614e-04 -5.73704747e-02  5.76381787e-02  1.74958413e-01  9.17908714e-04
  9.47264827e-04  3.79881568e-01 -3.71278931e-01  2.31028495e-03  4.08628880e-01
 -4.28638750e-01 -6.32355427e-02  6.58177252e-02 -1.77463784e-04  2.33957025e-01
  7.18689264e-02 -1.05234374e-03 -1.51939908e-03 -1.07411455e+00 -3.06757548e-01
  4.67217611e-02  2.20829499e-02 -3.66531852e-02  3.76704125e-01  1.70146305e-01
 -1.73484892e-01 -1.25299884e-03 -1.07851663e+00 -2.95093792e-01  4.61076556e-02
  2.14456955e-02  3.63444612e-02  3.81133246e-01  1.70748643e-01  1.76050649e-01
 -7.20245420e-03  1.04283671e-02  3.70465294e-02 -2.28179957e-01  1.89061328e+00
  1.15368306e-01 -6.61920831e-02 -4.79736480e-04 -3.31940422e-01  1.39002035e-01
  1.17026304e-03  1.35915970e+00 -3.33117214e-01  9.99638371e-04  2.84185158e-02
  2.35496619e-04 -1.21652296e-04 -4.03408372e-02  5.54190508e-02 -8.63168633e-02
  3.04023531e-04  5.12752814e-04  9.51934667e-02 -2.73868866e-01 -8.39901840e-03
  1.23032859e-02  4.32252589e-02 -2.89167853e-01  2.19446314e+00 -1.33153400e-01
  5.52668367e-02 -4.62349324e-04  3.53571639e-01 -2.18206037e-01  1.27587572e-03
 -1.22204153e+00  1.16454632e+00  1.72093693e-03  3.12172525e-02 -1.74526799e-04
  6.23202327e-05 -4.75878599e-02  5.43685392e-02 -7.92274320e-02 -6.82054343e-05
  9.29155957e-04  2.26954159e-01 -1.34377502e-01 -1.62672674e-02  4.10088028e-02
 -3.30856757e-01  2.71057347e+00  4.52795457e+00  7.23678880e-02  1.31642520e-01
  1.90053326e-06  8.20262246e-02  3.22812374e-01  5.56935498e-04  6.22390709e-01
  4.58535200e+00 -1.19603189e-02 -3.39922012e-02 -2.20166951e-04 -1.30220996e-04
 -1.23207679e-02  3.34320730e-02  3.51675532e-01  4.43505894e-03  6.48670009e-03
  9.39624339e-01 -6.61321371e-01 -3.29382458e-02  8.12289938e-02 -3.31635790e-01
  2.21481415e+00  4.51639279e+00 -2.97063850e-02 -6.34149473e-02  1.26368576e-04
  9.85967940e-01  9.54494434e-01  1.49630864e-03  6.21288134e-01 -2.17422686e+00
  1.86756808e-02  2.27524900e-02  1.72066998e-04  1.36958541e-04 -1.48725660e-02
  6.17165881e-03  4.76952359e-01  2.72822524e-03  6.47117241e-03  1.07499583e+00
  9.64752138e-02  2.23653876e-02 -1.29932772e+00 -1.51441529e+00 -2.13942206e-02
  8.09617867e-02 -9.75893955e-05  1.29623651e-01 -7.17276913e-02  5.96753482e-04
  5.58574008e-02 -2.25087438e+00 -1.24883445e+00  4.39482691e-02  4.26235449e-02
 -6.76969882e-02  3.50750674e-01  4.45826442e-02 -4.58052782e-01  5.62378782e-02
 -2.26897870e+00 -1.26239572e+00  4.39463737e-02  4.24643929e-02  6.75922847e-02
  3.53701676e-01  4.20567499e-02  4.62581913e-01  9.22910183e-04  7.65406089e-04
 -6.03160095e-02  3.66673248e-01 -1.14429240e+00 -3.31398140e-02 -7.91140520e-03
  7.66243901e-05  1.09054654e-01 -1.14832625e-01  2.38720534e-04 -9.29248144e-01
  1.81526445e-01  4.83283781e-04 -2.62072025e-02 -1.63934635e-04 -3.05572454e-05
  2.98824061e-02  3.05903728e-02  1.27803572e-01  9.93679449e-04 -5.02576967e-05
 -2.41405632e-01 -2.39117533e-01  2.26628913e-03 -2.00889386e-03 -5.14134046e-02
  3.65219270e-01 -1.19962211e+00  1.35290663e-02 -3.63648705e-02  9.06079997e-05
 -2.09921750e-01 -1.43768539e-01  2.83679559e-04 -5.26893404e-02 -1.17443158e+00
  5.51318663e-04 -2.64911175e-02  6.93233559e-05 -1.28780085e-04 -4.29978200e-02
 -2.04756372e-02  1.52513408e-01 -4.69645077e-04  7.98842863e-04  4.27791579e-01
  1.55997710e-01  3.76121431e-06 -9.71243798e-06  5.61010549e-05 -2.16045916e-04
  6.72236404e-03  6.22346256e-05 -8.76661088e-05  1.10010224e-01  2.03632932e-03
 -2.47897414e-03  4.85083648e+00  1.88986750e-03 -6.39234120e-03  8.15941617e+00
 -3.68018360e-05  6.08125852e-02  2.99489413e-02 -9.47512877e-06 -2.20201241e-05
 -3.89691868e-03  2.13015159e+00  2.32012880e-01  1.65386072e-03  2.92877558e-03
  3.63945659e-05 -8.84527299e-05  5.69407359e-04 -4.61019191e-03 -1.49770491e-02
 -1.74195716e-05 -1.60100767e-05  1.10782991e-02 -1.02248046e-03 -3.49077175e-03
  1.82264435e-01  5.83910085e-03  8.12549071e-04 -1.61966259e-01 -5.00989642e-06
  3.14688927e-03  1.88983368e-02 -1.16008865e-04  5.06422452e-05  2.27452538e-03
  2.02959078e-01 -2.19027604e-01 -9.82271723e-04  2.39631603e-03 -1.10880719e-04
  4.54304890e-03  5.52623910e-03  9.07406005e-05 -9.27315189e-05 -1.67277186e-02
  7.17346610e-04 -6.07432116e-04 -5.98926953e-02 -6.38204603e-02  9.94905212e+00
  7.92026465e+00 -1.69350274e-01 -7.32892097e-02  2.38068919e-01 -1.23201161e+00
  9.35432845e-02  1.23755861e+00  6.40814092e-02 -9.95063050e+00 -7.92257095e+00
  1.69745098e-01  7.34001522e-02  2.37554751e-01  1.23278543e+00 -9.51380592e-02
  1.23745359e+00  5.86506977e-06 -1.57624443e-05  4.63927444e-05  4.15562135e-04
  1.73785564e-03  7.31725305e-05 -2.20734696e-05  6.32868747e-03  5.36493795e-05
  8.35073339e-04  3.22160653e-02 -3.39314287e-03  3.34647327e-05 -2.12284485e-01
 -1.21496297e-06  5.55358939e-03  1.00028237e-02  1.72248916e-05 -1.82834438e-05
  9.83652406e-05 -5.98578076e-02 -5.00665331e-02 -2.48477440e-04  3.39624059e-04
  9.14661796e-07 -5.84537423e-06  6.93247828e-05 -2.16401657e-04  2.86374713e-03
 -6.81091564e-05  2.41778531e-05  2.32102785e-03  6.22350616e-04  4.62799896e-04
 -1.58087789e-02 -1.49775620e-03  1.91674009e-04 -9.40465253e-01  4.21027283e-05
  3.63235327e-03  7.25134940e-03  5.38512861e-05  1.24611943e-05 -2.08970839e-04
  8.95332418e-03 -1.20633162e-01 -6.51687664e-04 -2.41668415e-05 -8.92987421e-04
  1.83319611e-03  5.85868871e-03 -4.03683729e-01 -2.32816669e+00  8.28792094e-02
 -3.24945604e-02 -1.38814519e-04  5.41546747e+00 -2.57170444e+00 -6.89365358e-03
  7.10503352e+00 -2.63714057e+00 -9.37128106e-03  4.07581465e-02 -1.19064538e-04
 -1.33738000e-04  3.96538796e-02  6.69652982e-02  1.95833923e+00 -5.03762748e-04
  2.56130801e-03  1.55369887e+00  2.04969880e+00 -2.70653470e-03  6.48927557e-03
 -4.16306097e-02  8.07842826e-01  2.92120009e+00  1.43402864e-02 -1.81732007e-02
  2.44042957e-05  1.19005408e+00 -3.05017415e-01  1.06655545e-03  5.09193256e-01
  2.60775357e-01  3.65856484e-03  4.73315945e-03  1.76933530e-04  2.30250861e-05
 -3.82109154e-02 -4.92875726e-02 -1.20676222e-01  1.41602502e-03 -3.36648138e-04
  6.25802351e-01  8.40975150e-01 -4.48780088e-02  1.55132181e+01  1.08136046e+01
  1.87249000e-01 -2.96815573e-01  3.15652740e-05  3.11770101e+00 -2.07995334e+00
 -4.05985835e-03  1.94747940e-02 -7.67794421e+00 -5.62263221e+00  7.95001138e-02
  6.52801723e-02 -1.48138276e-01  9.97349996e-01 -1.31089243e-01 -1.44642991e+00
  1.95828798e-02 -7.66475900e+00 -5.62067660e+00  7.93199805e-02  6.52866715e-02
  1.47592005e-01  9.98144912e-01 -1.35028986e-01  1.44410225e+00 -4.68060803e-03