Generated by Psi4
     FORCE                        DF-MP2                        SADLEJ
Number of atoms                            I                7
Charge                                     I               -1
Multiplicity                               I                1
Number of electrons                        I               32
Number of alpha electrons                  I               16
Number of beta electrons                   I               16
Number of basis functions                  I              123
Number of independent functions            I              123
Atomic numbers                             I   N=           7
           6           6           1           1           1           8
           8
Nuclear charges                            R   N=           7
  6.00000000e+00  6.00000000e+00  1.00000000e+00  1.00000000e+00  1.00000000e+00
  8.00000000e+00  8.00000000e+00
Current cartesian coordinates              R   N=          21
  1.15867816e+00  2.45063006e+00 -2.66196663e-03 -1.02987740e-01 -1.92237859e-01
 -2.05708883e-03 -2.55552389e-01  3.95847702e+00 -1.76976173e-03  2.37272076e+00
  2.63150223e+00 -1.67090613e+00  2.37470113e+00  2.63139274e+00  1.66415784e+00
 -2.50223939e+00 -2.33337271e-01  3.02789468e-03  1.42719123e+00 -2.04202567e+00
  1.04923640e-03
Integer atomic weights                     I   N=           7
          12          12           1           1           1          15
          15
Real atomic weights                        R   N=           7
  1.20000000e+01  1.20000000e+01  1.00782503e+00  1.00782503e+00  1.00782503e+00
  1.59949146e+01  1.59949146e+01
Number of primitive shells                 I              110
Number of contracted shells                I               55
Pure/Cartesian d shells                    I                0
Pure/Cartesian f shells                    I                0
Highest angular momentum                   I                2
Largest degree of contraction              I                5
Shell types                                I   N=          55
           0           0           0           0           0           1
           1           1          -2          -2           0           0
           0           0           0           1           1           1
          -2          -2           0           0           0           1
           1           0           0           0           1           1
           0           0           0           1           1           0
           0           0           0           0           1           1
           1          -2          -2           0           0           0
           0           0           1           1           1          -2
          -2
Number of primitives per shell             I   N=          55
           5           2           1           1           1           4
           1           1           2           2           5           2
           1           1           1           4           1           1
           2           2           4           1           1           2
           2           4           1           1           2           2
           4           1           1           2           2           5
           2           1           1           1           4           1
           1           2           2           5           2           1
           1           1           4           1           1           2
           2
Shell to atom map                          I   N=          55
           1           1           1           1           1           1
           1           1           1           1           2           2
           2           2           2           2           2           2
           2           2           3           3           3           3
           3           4           4           4           4           4
           5           5           5           5           5           6
           6           6           6           6           6           6
           6           6           6           7           7           7
           7           7           7           7           7           7
           7
Primitive exponents                        R   N=         110
  5.24063530e+03  7.82204800e+02  1.78350830e+02  5.08159420e+01  1.68235620e+01
  6.17577600e+00  2.41804900e+00  5.11900000e-01  1.56590000e-01  4.79000000e-02
  1.88418000e+01  4.15924000e+00  1.20671000e+00  3.85540000e-01  1.21940000e-01
  3.85680000e-02  1.20670000e+00  3.85500000e-01  1.21900000e-01  3.86000000e-02
  5.24063530e+03  7.82204800e+02  1.78350830e+02  5.08159420e+01  1.68235620e+01
  6.17577600e+00  2.41804900e+00  5.11900000e-01  1.56590000e-01  4.79000000e-02
  1.88418000e+01  4.15924000e+00  1.20671000e+00  3.85540000e-01  1.21940000e-01
  3.85680000e-02  1.20670000e+00  3.85500000e-01  1.21900000e-01  3.86000000e-02
  3.38650140e+01  5.09478800e+00  1.15878600e+00  3.25840000e-01  1.02741000e-01
  3.24000000e-02  1.15880000e+00  3.25800000e-01  1.02700000e-01  3.24000000e-02
  3.38650140e+01  5.09478800e+00  1.15878600e+00  3.25840000e-01  1.02741000e-01
  3.24000000e-02  1.15880000e+00  3.25800000e-01  1.02700000e-01  3.24000000e-02
  3.38650140e+01  5.09478800e+00  1.15878600e+00  3.25840000e-01  1.02741000e-01
  3.24000000e-02  1.15880000e+00  3.25800000e-01  1.02700000e-01  3.24000000e-02
  1.06622850e+04  1.59970970e+03  3.64725260e+02  1.03651790e+02  3.39058050e+01
  1.22874690e+01  4.75680500e+00  1.00427100e+00  3.00686000e-01  9.00300000e-02
  3.48564630e+01  7.84313100e+00  2.30624900e+00  7.23164000e-01  2.14882000e-01
  6.38500000e-02  2.30620000e+00  7.23200000e-01  2.14900000e-01  6.39000000e-02
  1.06622850e+04  1.59970970e+03  3.64725260e+02  1.03651790e+02  3.39058050e+01
  1.22874690e+01  4.75680500e+00  1.00427100e+00  3.00686000e-01  9.00300000e-02
  3.48564630e+01  7.84313100e+00  2.30624900e+00  7.23164000e-01  2.14882000e-01
  6.38500000e-02  2.30620000e+00  7.23200000e-01  2.14900000e-01  6.39000000e-02
Contraction coefficients                   R   N=         110
  2.06539993e-03  1.59324554e-02  8.01119476e-02  2.87877514e-01  7.03009673e-01
  6.94067370e-01  3.40077856e-01  1.00000000e+00  1.00000000e+00  1.00000000e+00
  1.80615059e-02  1.12214925e-01  3.75541979e-01  6.49536597e-01  1.00000000e+00
  1.00000000e+00  2.67978866e-01  8.19993920e-01  4.83796365e-01  6.39336711e-01
  2.06539993e-03  1.59324554e-02  8.01119476e-02  2.87877514e-01  7.03009673e-01
  6.94067370e-01  3.40077856e-01  1.00000000e+00  1.00000000e+00  1.00000000e+00
  1.80615059e-02  1.12214925e-01  3.75541979e-01  6.49536597e-01  1.00000000e+00
  1.00000000e+00  2.67978866e-01  8.19993920e-01  4.83796365e-01  6.39336711e-01
  8.76044950e-03  6.54232910e-02  2.92851374e-01  7.27211150e-01  1.00000000e+00
  1.00000000e+00  1.86447366e-01  8.73088966e-01  9.76214574e-01  3.48056130e-02
  8.76044950e-03  6.54232910e-02  2.92851374e-01  7.27211150e-01  1.00000000e+00
  1.00000000e+00  1.86447366e-01  8.73088966e-01  9.76214574e-01  3.48056130e-02
  8.76044950e-03  6.54232910e-02  2.92851374e-01  7.27211150e-01  1.00000000e+00
  1.00000000e+00  1.86447366e-01  8.73088966e-01  9.76214574e-01  3.48056130e-02
  1.90604745e-03  1.46782352e-02  7.43263084e-02  2.75759025e-01  7.19364732e-01
  6.69996511e-01  3.66229217e-01  1.00000000e+00  1.00000000e+00  1.00000000e+00
  1.99439284e-02  1.25155543e-01  3.92261182e-01  6.27670401e-01  1.00000000e+00
  1.00000000e+00  2.83613619e-01  8.10264660e-01  6.73833443e-01  4.58004278e-01
  1.90604745e-03  1.46782352e-02  7.43263084e-02  2.75759025e-01  7.19364732e-01
  6.69996511e-01  3.66229217e-01  1.00000000e+00  1.00000000e+00  1.00000000e+00
  1.99439284e-02  1.25155543e-01  3.92261182e-01  6.27670401e-01  1.00000000e+00
  1.00000000e+00  2.83613619e-01  8.10264660e-01  6.73833443e-01  4.58004278e-01
Coordinates of each shell                  R   N=         165
  1.15867816e+00  2.45063006e+00 -2.66196663e-03  1.15867816e+00  2.45063006e+00
 -2.66196663e-03  1.15867816e+00  2.45063006e+00 -2.66196663e-03  1.15867816e+00
  2.45063006e+00 -2.66196663e-03  1.15867816e+00  2.45063006e+00 -2.66196663e-03
  1.15867816e+00  2.45063006e+00 -2.66196663e-03  1.15867816e+00  2.45063006e+00
 -2.66196663e-03  1.15867816e+00  2.45063006e+00 -2.66196663e-03  1.15867816e+00
  2.45063006e+00 -2.66196663e-03  1.15867816e+00  2.45063006e+00 -2.66196663e-03
 -1.02987740e-01 -1.92237859e-01 -2.05708883e-03 -1.02987740e-01 -1.92237859e-01
 -2.05708883e-03 -1.02987740e-01 -1.92237859e-01 -2.05708883e-03 -1.02987740e-01
 -1.92237859e-01 -2.05708883e-03 -1.02987740e-01 -1.92237859e-01 -2.05708883e-03
 -1.02987740e-01 -1.92237859e-01 -2.05708883e-03 -1.02987740e-01 -1.92237859e-01
 -2.05708883e-03 -1.02987740e-01 -1.92237859e-01 -2.05708883e-03 -1.02987740e-01
 -1.92237859e-01 -2.05708883e-03 -1.02987740e-01 -1.92237859e-01 -2.05708883e-03
 -2.55552389e-01  3.95847702e+00 -1.76976173e-03 -2.55552389e-01  3.95847702e+00
 -1.76976173e-03 -2.55552389e-01  3.95847702e+00 -1.76976173e-03 -2.55552389e-01
  3.95847702e+00 -1.76976173e-03 -2.55552389e-01  3.95847702e+00 -1.76976173e-03
  2.37272076e+00  2.63150223e+00 -1.67090613e+00  2.37272076e+00  2.63150223e+00
 -1.67090613e+00  2.37272076e+00  2.63150223e+00 -1.67090613e+00  2.37272076e+00
  2.63150223e+00 -1.67090613e+00  2.37272076e+00  2.63150223e+00 -1.67090613e+00
  2.37470113e+00  2.63139274e+00  1.66415784e+00  2.37470113e+00  2.63139274e+00
  1.66415784e+00  2.37470113e+00  2.63139274e+00  1.66415784e+00  2.37470113e+00
  2.63139274e+00  1.66415784e+00  2.37470113e+00  2.63139274e+00  1.66415784e+00
 -2.50223939e+00 -2.33337271e-01  3.02789468e-03 -2.50223939e+00 -2.33337271e-01
  3.02789468e-03 -2.50223939e+00 -2.33337271e-01  3.02789468e-03 -2.50223939e+00
 -2.33337271e-01  3.02789468e-03 -2.50223939e+00 -2.33337271e-01  3.02789468e-03
 -2.50223939e+00 -2.33337271e-01  3.02789468e-03 -2.50223939e+00 -2.33337271e-01
  3.02789468e-03 -2.50223939e+00 -2.33337271e-01  3.02789468e-03 -2.50223939e+00
 -2.33337271e-01  3.02789468e-03 -2.50223939e+00 -2.33337271e-01  3.02789468e-03
  1.42719123e+00 -2.04202567e+00  1.04923640e-03  1.42719123e+00 -2.04202567e+00
  1.04923640e-03  1.42719123e+00 -2.04202567e+00  1.04923640e-03  1.42719123e+00
 -2.04202567e+00  1.04923640e-03  1.42719123e+00 -2.04202567e+00  1.04923640e-03
  1.42719123e+00 -2.04202567e+00  1.04923640e-03  1.42719123e+00 -2.04202567e+00
  1.04923640e-03  1.42719123e+00 -2.04202567e+00  1.04923640e-03  1.42719123e+00
 -2.04202567e+00  1.04923640e-03  1.42719123e+00 -2.04202567e+00  1.04923640e-03
Total Energy                               R     -2.273069054281066e+02
Alpha Orbital Energies                     R   N=         123
 -9.66729589e-04 -4.22646892e-04 -1.48715841e-04 -1.13961903e-04 -4.73479483e-05
 -3.88502299e-05 -1.32990807e-05 -7.27069517e-06 -4.46759985e-06  1.51259181e-07
  3.55434886e-07  4.30236533e-07  7.08002856e-07  1.61213309e-06  2.25013487e-06
  2.91314491e-06  3.72316100e-06  4.35231870e-06  4.64848919e-06  5.50854519e-06
  6.40369542e-06  7.43153926e-06  9.22064444e-06  9.84353706e-06  1.17085691e-05
  1.18760047e-05  1.40447476e-05  1.46353076e-05  1.76148464e-05  2.10987295e-05
  2.98930524e-05  3.06392084e-05  3.09990105e-05  3.72065410e-05  3.78627395e-05
  4.27750488e-05  5.01134976e-05  5.02095547e-05  5.73685627e-05  6.01867408e-05
  6.32628589e-05  6.48407343e-05  7.28429973e-05  7.76732929e-05  9.02942365e-05
  1.08431844e-04  1.20906054e-04  1.42426888e-04  1.44446706e-04  1.47999070e-04
  1.50998206e-04  1.52373160e-04  1.67409153e-04  1.71501952e-04  1.84255496e-04
  2.01197211e-04  2.15494596e-04  2.17641548e-04  2.39537178e-04  2.45799796e-04
  2.72210707e-04  2.76935183e-04  3.06819612e-04  3.38643627e-04  3.87297786e-04
  4.64819822e-04  4.97247074e-04  5.36177121e-04  5.93576110e-04  6.30602299e-04
  6.41234062e-04  6.78108932e-04  6.80720237e-04  7.71485881e-04  7.77224682e-04
  8.10348776e-04  8.26561527e-04  8.61281152e-04  1.25752791e-03  1.50106320e-03
  2.25121523e-03  2.48824210e-03  2.55921234e-03  2.70563314e-03  2.80427281e-03
  3.01404788e-03  3.13392481e-03  3.67565312e-03  3.85076017e-03  3.85543224e-03
  3.92964172e-03  4.01690308e-03  4.11304100e-03  4.34119236e-03  4.47504283e-03
  6.15701619e-03  6.37302163e-03  6.98750204e-03  8.37482435e-03  8.39234666e-03
  8.73378808e-03  9.90612490e-03  9.96445251e-03  1.53601185e-02  1.56707620e-02
  1.81219777e-02  2.97932374e-02  9.69069509e-01  9.77140684e-01  9.77420809e-01
  9.79288911e-01  9.79632617e-01  9.82580513e-01  9.83383044e-01  9.83490894e-01
  9.83595642e-01  9.90483852e-01  9.91845841e-01  9.93007926e-01  9.99695726e-01
  9.99703689e-01  9.99853615e-01  9.99853626e-01
Alpha MO coefficients                      R   N=       15129
 -2.70748337e-03 -7.24196487e-03  6.45645790e-02  1.11556080e+00  3.55248800e+00
 -1.02122565e-01 -2.07992490e-01  1.60664692e-04 -7.09031239e-02  8.67058600e-01
  3.08744519e-04  4.40711517e-01 -9.00111297e-02  3.09973172e-03  2.90266435e-02
  3.13144993e-05  5.61236408e-05  1.10312345e-02 -3.39888805e-03  5.32186879e-01
 -4.17226724e-04 -1.14282236e-03  2.22566142e-01 -1.48089254e-03 -1.91969350e-03
 -1.28245732e-02  3.83461288e-02 -1.50436908e+00 -2.52639824e+00  5.23740989e-03
  9.75875767e-03 -3.86748170e-04 -6.41045328e-01 -1.57393276e+00 -8.35832703e-04
 -1.07008080e+00 -2.12019769e+00 -2.54681248e-03 -1.34107475e-03 -1.28334372e-04
 -2.68424688e-04 -3.54327471e-03  1.74998144e-02  1.18969460e-01 -1.04920782e-03
 -2.82996726e-03  1.88031747e-01 -3.47384713e-01 -1.03733296e-03 -7.99396516e-01
  3.64282696e-01 -2.66269325e-02  3.17410891e-02  1.42460039e-05 -3.10786486e-01
  1.28114173e-01  8.42758235e-05 -4.75856790e-02  2.64216711e-01 -5.70590981e-01
  2.93832923e-02 -3.99504679e-02  7.70254325e-03 -2.38606310e-01 -3.43645537e-01
  1.52713640e-01 -4.73877068e-02  2.64612159e-01 -5.67938944e-01  2.93217195e-02
 -3.98491579e-02 -7.66072298e-03 -2.38756572e-01 -3.43044541e-01 -1.52314185e-01
 -3.65958640e-03 -1.46533872e-02  1.20038331e-01 -3.27727987e-01  5.79856174e-01
 -1.13918042e-01 -1.83476299e-01  1.85571083e-04  5.55901330e-01  9.27135862e-01
 -1.18303026e-03  3.96792680e-01 -1.59035338e-02 -3.98473736e-05 -9.04660968e-03
  3.61648364e-05 -1.31409401e-04  2.20952682e-02  4.05590651e-02 -1.84378123e-01
 -8.70416999e-04 -3.36294412e-05  1.97171186e-01  1.51291610e-01 -3.37568745e-03
 -1.31202108e-02  1.05383555e-01 -2.90479251e-01  3.19506379e-01 -8.27100110e-02
 -2.07605365e-01  1.83303405e-04  4.09884001e-01  1.05494905e+00 -1.19294537e-03
 -2.43163395e-01  1.55287466e-01  1.20182575e-04 -9.25565487e-03 -9.63270962e-05
 -3.18962295e-05 -4.70183339e-02 -1.28632130e-02 -1.94334133e-01  2.98700885e-04
 -3.90923689e-04 -1.69091689e-01 -1.73149230e-01  4.94982076e-05 -3.11108704e-03
  3.19532565e-02 -1.20254409e-02  1.60082159e-02  5.65752210e-03 -2.30786231e-03
 -1.63876327e-05  8.59684908e-01 -2.55806498e-01  1.39256277e-04  2.05845031e+00
 -1.14019830e+00 -1.81788610e-03 -2.94673460e-02 -1.38533770e-04  4.84067060e-05
 -5.82127361e-02 -6.01496209e-02  1.09778638e-01 -4.52045477e-04 -3.37414554e-04
 -2.76412367e-01  3.79699322e-02 -1.79212649e-04 -1.50773631e-03  1.84247842e-02
  5.22876177e-02 -6.82529920e-01  5.13994206e-02 -1.86665874e-02 -4.88966668e-05
 -5.35329898e-01  3.10461623e-01 -1.03588355e-04 -2.26363122e+00  9.68771135e-01
  9.63587942e-04 -1.05582893e-02  2.60726541e-05 -1.00987884e-05 -2.75763663e-02
 -1.80148953e-02  5.72379119e-02  2.16379455e-03  2.06073622e-04 -1.11491408e+00
 -9.97863700e-01  5.85030497e-02  1.57664188e-02  1.04660224e+00  4.11824990e-02
  4.31960399e-02 -3.69170177e-05 -5.77483929e-02 -1.37644524e-01  1.41334801e-04
 -8.19987472e-03  1.12851909e-01 -4.06217934e-01 -8.35421979e-03 -6.62816136e-02
  1.08839692e-02  8.38439182e-02  3.74851265e-04 -1.10101545e-01 -7.99449452e-03
  1.10452380e-01 -4.04475825e-01 -8.36060999e-03 -6.61434739e-02 -1.09361628e-02
  8.48303143e-02  1.35496099e-03  1.10877154e-01 -8.60004429e-04 -2.08346150e-02
  1.18454845e-01 -2.10681510e-01  2.55732003e-01 -1.25139655e-01  2.02914822e-01
 -5.69257236e-04  4.70391713e-01 -9.78799024e-01  1.89719725e-03  4.32476671e-03
  6.64432987e-01 -1.82203102e-03 -9.53676398e-03  7.13589909e-06  5.61055819e-05
  2.01654332e-02 -2.60125312e-02 -1.69485994e-01 -4.61743114e-04  4.39257995e-04
  1.84921184e-01 -4.97433494e-02  1.00458626e-03  2.47274010e-02 -1.37577541e-01
  2.10673587e-01  1.17606393e-01 -2.37058399e-01 -2.47519484e-02  6.93784798e-04
  1.04412534e+00  2.35758513e-01 -2.39393435e-03 -4.89812642e-01 -3.32972339e-01
  2.01917113e-03  8.39076905e-03 -2.30108678e-05 -3.42812952e-05 -2.08470627e-02
  2.70294007e-02  1.43384940e-01 -4.99578353e-04 -2.29917038e-04 -2.89234745e-02
  2.45381306e-01  1.24996269e-05 -4.07512423e-05  1.55700774e-04 -1.44379218e-03
 -1.43812018e-03 -4.58215836e-05 -5.00334497e-05 -3.75370743e-02 -8.37936806e-03
  2.21095094e-03  9.99590558e-01 -3.61534540e-03 -3.01911280e-03 -2.93727219e-01
  3.40544467e-04 -5.18035685e-02 -7.32892361e-03  4.19840363e-04  5.57647186e-04
  6.10812767e-04 -2.58730858e-01 -1.35189405e-01 -3.11846641e-03 -1.88394524e-04
 -1.43255693e-06  6.34926556e-06  4.28204470e-05 -5.87595339e-03 -3.75916267e-03
  2.90927824e-04 -1.37490842e-04 -6.46636625e-02  1.12722780e-02 -4.98002718e-03
 -5.14378251e-01  2.61560055e-03 -6.54192093e-04 -4.40907501e-01 -2.92271400e-04
  2.26993895e-01 -9.77736144e-02  6.65696937e-04  3.49385173e-04 -3.67232311e-03
  1.83746757e+00 -6.75909578e-01  8.26044840e-03  6.32085635e-03  2.39262020e-04
 -7.10549254e-03  3.79330466e-03  7.18232389e-05 -7.94686171e-04  2.21004907e-02
 -3.45585023e-03  2.51952989e-03  3.50573538e-02 -9.21788819e-03  1.61302746e+00
 -3.98808369e-01  3.61506584e-02 -2.66533581e-02 -3.28996093e-02 -4.72180328e-01
 -2.78431131e-01  5.37889000e-01  9.06791950e-03 -1.60397498e+00  3.99434687e-01
 -3.54122779e-02  2.74911902e-02 -3.29082567e-02  4.71406267e-01  2.79090240e-01
  5.32836299e-01 -2.42462588e-05  1.28585363e-04 -1.08161841e-03  4.90824020e-03
  8.13383291e-03 -7.19897013e-04 -9.55975016e-04 -2.76172912e-01  6.23145820e-03
  5.71997722e-03  1.28293605e+00  2.09022629e-03  3.11533071e-04  9.10463368e-01
 -1.20417361e-04  4.23636724e-02  9.97489453e-04  1.71966794e-04  2.25722726e-04
 -2.62451738e-03  4.66730121e-01  1.59084841e-01  3.93413620e-04  1.20558602e-03
  2.76680578e-05 -1.15081205e-04  7.92319774e-04 -3.35836780e-03 -5.92711972e-03
  5.90916350e-04  8.34529172e-04  1.76706056e-01 -3.10077760e-03 -5.95683123e-03
 -8.69002220e-01 -3.53764646e-04  3.35035534e-04 -3.02177992e-01  2.63065168e-05
  3.10915512e-03 -1.19998321e-02  2.29080295e-04  3.83247710e-05  1.40960058e-03
  2.99143658e-02 -2.58458553e-01  7.77225677e-04 -1.40621275e-03  1.03750309e-04
 -3.18439451e-04  1.58590890e-03 -4.52679497e-03 -2.61788636e-02 -1.50202779e-04
 -4.07386480e-04 -1.59592881e-02  1.71099703e-03 -4.66961277e-03  3.65537718e-01
 -1.31807016e-03 -2.80895899e-03 -7.80492291e-01 -1.44668064e-05 -8.43140037e-02
 -1.04970922e-01 -3.08294970e-04  1.06248893e-05 -2.15971718e-04 -2.51589388e-01
  4.61926066e-01 -4.25903868e-04  1.96479700e-03  2.58924701e-06 -1.99188441e-05
  2.07828133e-04 -2.17456147e-02  2.90851772e-02 -2.84994268e-04  3.88684755e-04
 -2.73831224e-01 -4.30270920e-03  2.50266965e-03 -1.49301298e+00  2.09764272e-03
  3.45368379e-03 -1.53841990e+00 -5.38439246e-04  2.09450697e-03  1.33485390e-01
 -7.03877346e-05 -1.79078803e-04 -4.79507745e-03  1.09021667e-01  6.45191084e-01
 -4.92361922e-03 -5.42479698e-04  4.70450803e-04  4.35865149e-03  1.60009483e-03
  3.61519673e-04  4.73967917e-05 -2.75611631e-02  2.35681236e-03  1.03919504e-03
 -2.42317794e-01 -4.61431791e-02  3.93924025e-01 -1.21641607e+00  1.03293715e-01
  1.05559965e-01 -9.92515339e-03 -4.46219169e-01 -2.01534883e-01  3.29110780e-01
  4.74020640e-02 -3.97203035e-01  1.22173540e+00 -1.04007761e-01 -1.05578392e-01
 -1.02460883e-02  4.49155999e-01  2.05744477e-01  3.29727388e-01  8.18421278e-06
  4.09558709e-05 -7.21021204e-04  3.83865127e-03 -3.25725202e-03 -5.45258335e-04
  1.65049805e-04 -2.20009199e-01  5.10517383e-03 -1.81201279e-03  8.22633356e-01
  4.25190527e-04  2.87494498e-03  9.13010751e-01 -1.18471023e-04  9.91874789e-02
 -6.79394934e-03  2.32441652e-04 -1.43597893e-04 -2.44213263e-03  3.62461549e-01
 -6.88076882e-02  2.43199062e-03  8.40703909e-04  7.56717281e-06  5.81832793e-05
 -1.03212516e-03  5.05641382e-03  2.74935308e-03  2.27670032e-04 -8.70592863e-04
 -3.09549751e-01 -3.58498872e-03  7.24177015e-03  1.24780538e+00  1.70935344e-03
  6.18404038e-03  9.26438989e-01 -9.51489191e-06 -8.09837181e-02  7.31874873e-02
 -1.54873767e-05 -2.47187140e-04 -3.13439232e-03 -2.84189158e-01  4.02096076e-01
 -2.45134651e-03 -1.99826712e-03 -1.00647186e-03  2.80525364e-03 -1.25918296e-02
 -2.19884713e-01  4.14166526e-01 -8.23729616e-03  1.93461491e-02  1.05770778e-04
 -4.08852519e-01  1.80371035e-01 -3.12370100e-03  1.53126235e+00 -1.25207552e+00
  8.70560798e-03  4.81995359e-02  2.13831381e-04 -8.70143789e-05  2.18583714e-02
  3.78183667e-02 -3.91750120e-01 -1.88369689e-03 -5.04030320e-04 -1.47486942e+00
 -1.12170594e+00 -2.15814535e-03  4.94634456e-03 -1.87090849e-02 -1.32283769e-01
 -8.57825052e-01  1.98953006e-01 -1.02273391e-01 -1.52294393e-04 -1.19723107e+00
  8.52379040e-01 -8.25823785e-04 -3.24292961e+00  1.89628594e+00 -6.59541467e-03
 -9.93320892e-03 -6.20549586e-04  4.14609067e-04  7.85854684e-02  6.32206412e-02
 -6.42572826e-02 -4.92259898e-03  1.16306445e-04 -9.65923626e-01 -7.20603448e-01
  1.06941605e-01 -3.46975387e+00 -1.83904907e+00 -2.83984333e-02 -7.28809613e-02
  5.88446218e-05 -1.49017739e+00  5.98350011e-01 -9.87294675e-04 -6.02267294e-02
  1.78676182e+00  1.08126306e+00  3.21982923e-02  4.92331570e-02  2.25633864e-03
 -5.98675767e-01  2.51830740e-01  5.37204684e-01 -6.05902827e-02  1.80949215e+00
  1.07739254e+00  3.21053216e-02  4.88493395e-02 -2.00743130e-03 -6.02651838e-01
  2.51164069e-01 -5.44931007e-01  9.72626235e-03 -1.60334401e-02 -2.14136556e-02
  1.62260565e-01 -1.12570186e+00 -1.62093938e-01 -8.50152853e-02  7.38222472e-04
  6.23085501e-01  2.83582742e-01 -3.45773671e-03 -1.03295804e+00 -1.68643453e+00
  1.69548368e-03 -3.09617105e-02 -1.51843543e-04 -8.80445831e-05  4.17928856e-02
  5.27052268e-02 -4.12284124e-02 -8.06936992e-04  9.18400616e-05  2.92487705e-03
 -3.26215730e-01 -1.15135010e-02  1.98317613e-02  4.73960180e-03 -7.92199717e-02
  1.16468330e+00 -4.27766890e-02  1.77706413e-01 -8.75825038e-04  1.51619289e-01
 -6.87200457e-01  3.70504763e-03  2.20481542e-01  1.55702700e+00 -5.22340841e-04
  2.12291681e-02 -1.91871833e-04  1.75777365e-04  5.32178998e-02  4.50959101e-02
  1.38105979e-01  2.73593568e-04  1.14932898e-03 -2.17659737e-01 -4.41509091e-02
  3.62452543e-03 -1.20583879e-02  1.01685323e-01 -1.01767968e+00 -4.26674161e+00
 -3.78271391e-02 -1.09751334e-01  1.98597941e-04 -2.00196843e-01  5.09491310e-01
 -2.32604322e-03  7.55875114e-03 -1.23083663e+00  4.96905616e-03  1.90071714e-02
  2.18443861e-04  1.67901776e-04  9.89543538e-03  7.63107486e-03 -5.03979003e-01
  1.02098201e-03 -2.31098286e-03 -3.45234513e-01  1.74297609e-02 -1.34682248e-02
  4.50792954e-02 -3.32083304e-01  1.31598171e+00  4.79758789e+00  7.35960045e-02
  1.41495839e-01  5.77247865e-05 -4.77441712e-01 -9.61584750e-01  3.25685847e-03
  3.41441019e-01  2.30219998e+00  4.45305405e-03  4.56893059e-04 -7.12700512e-05
 -9.36439942e-05  5.89159774e-02 -5.58461575e-02 -1.66803418e-01 -1.14681861e-03
 -9.10854893e-04 -4.57886533e-01  2.96528094e-01  7.47660270e-03 -7.17629836e-01
  2.42910755e-01  5.91680196e-02 -6.27645922e-02  1.76345151e-04 -3.20342296e-01
 -2.81727467e-02  8.81052922e-04 -2.95579168e-03  1.23462652e+00  4.09087126e-01
 -4.66631389e-02 -2.04669830e-02  3.89117942e-02 -4.07098604e-01 -1.58453403e-01
  2.06886250e-01 -3.21291066e-03  1.24116200e+00  3.97369392e-01 -4.60583688e-02
 -1.98615614e-02 -3.85834975e-02 -4.11813914e-01 -1.59234363e-01 -2.10122983e-01
  7.89979975e-03 -1.14309201e-02 -4.19502403e-02  2.67906420e-01 -1.95671519e+00
 -1.27798475e-01  6.44426555e-02  5.33038477e-04  3.92426363e-01 -1.34291122e-01
 -1.45574042e-03 -1.42762633e+00  2.57033250e-01 -9.82472755e-04 -3.04387300e-02
 -2.45104564e-04  1.19323556e-04  4.44525187e-02 -5.43232002e-02  8.11829056e-02
 -4.12033640e-04 -5.20224440e-04 -9.40846905e-02  2.67262817e-01  7.70861615e-03
 -1.12884565e-02 -3.97293646e-02  2.60549985e-01 -2.12136585e+00  1.26637287e-01
 -4.59202081e-02  4.07281430e-04 -3.25055072e-01  1.80642345e-01 -1.02612593e-03
  1.22751402e+00 -1.08643756e+00 -1.69233095e-03 -2.96288214e-02  1.64770821e-04
 -5.37758051e-05  4.85527970e-02 -5.10038046e-02  8.52906339e-02  4.27661198e-05
 -8.38395482e-04 -2.30143703e-01  1.34518952e-01 -1.66025406e-02  4.17854527e-02
 -3.35651500e-01  2.73989991e+00  4.53553545e+00  7.42102486e-02  1.31350191e-01
  2.26469584e-06  8.60686016e-02  3.21300206e-01  5.96542550e-04  7.98756550e-01
  4.50452355e+00 -1.15359580e-02 -3.31113161e-02 -2.17631691e-04 -1.30255222e-04
 -1.20898951e-02  3.44484091e-02  3.40640755e-01  4.28402350e-03  6.46029924e-03
  8.97086151e-01 -6.92992056e-01 -3.29684448e-02  8.11551376e-02 -3.29034213e-01
  2.18958056e+00  4.45215616e+00 -2.66988087e-02 -6.59990493e-02  1.25902484e-04
  9.30199669e-01  9.91604074e-01  1.43469931e-03  4.67632536e-01 -2.03682830e+00
  1.82672085e-02  2.27366421e-02  1.69565482e-04  1.43510339e-04 -1.41262845e-02
  5.63566031e-03  4.82375695e-01  2.72874228e-03  6.39955894e-03  1.02985228e+00
  5.63991590e-02  2.23042011e-02 -1.38330873e+00 -1.50185315e+00 -2.00917432e-02
  7.79021900e-02 -9.62950552e-05  8.06015238e-02 -4.61270931e-02  5.15990815e-04
  5.54460034e-02 -2.22685821e+00 -1.24856126e+00  4.75017477e-02  4.42811372e-02
 -6.88564226e-02  3.22571321e-01  4.69046851e-02 -4.47180256e-01  5.58299939e-02
 -2.24465584e+00 -1.26239760e+00  4.75011415e-02  4.41165723e-02  6.87558678e-02
  3.25541776e-01  4.43921224e-02  4.51610936e-01  9.03730711e-04  9.42013529e-04
 -6.26830111e-02  3.79456703e-01 -1.20215969e+00 -3.51976401e-02 -8.57741426e-03
  8.40483723e-05  1.14482616e-01 -1.16041971e-01  2.08509795e-04 -9.74109086e-01
  1.29168208e-01  6.41407759e-04 -2.71346258e-02 -1.66973851e-04 -3.30539529e-05
  3.11094362e-02  3.12928542e-02  1.32429774e-01  1.01415214e-03 -1.91274575e-05
 -2.47538214e-01 -2.47796772e-01  2.43232844e-03 -2.62710304e-03 -4.59489369e-02
  3.42021088e-01 -1.05436682e+00  1.26112973e-02 -3.33962453e-02  7.79292113e-05
 -2.08514232e-01 -1.45271165e-01  3.14112983e-04 -7.91335643e-02 -1.14054052e+00
  4.96787142e-04 -2.60129000e-02  6.42680685e-05 -1.25606149e-04 -4.15775628e-02
 -1.88979475e-02  1.51936798e-01 -4.52505657e-04  8.00851762e-04  4.21869619e-01
  1.49399206e-01  4.63976372e-06 -1.18277593e-05  6.78883751e-05 -2.91970753e-04
  6.42830378e-03  4.98320086e-05 -8.24850307e-05  1.10119694e-01  2.00563280e-03
 -2.39843599e-03  4.80183150e+00  9.14626466e-05 -5.39781051e-03  8.23215126e+00
 -3.67892023e-05  6.12414644e-02  2.89813733e-02 -2.10998090e-05 -3.27899807e-05
 -4.09813824e-03  2.11037208e+00  2.58364836e-01  2.01061559e-03  2.97186368e-03
  3.69333198e-05 -8.94358313e-05  5.67839493e-04 -4.69024517e-03 -1.42010569e-02
 -2.46775051e-05 -7.99238675e-06  1.12737400e-02 -1.43987658e-03 -3.19367340e-03
  1.89039038e-01  7.23503484e-03  2.74229836e-04 -1.93123465e-01  3.43881123e-06
  1.64191784e-03  2.04744370e-02 -1.14742043e-04  6.14031937e-05  2.34947643e-03
  1.54281089e-01 -2.07402340e-01 -8.63255832e-04  2.69791451e-03 -9.72715589e-05
  4.21056608e-03  4.23421671e-03  7.79502924e-05 -5.77075232e-05 -1.42104482e-02
  8.53855277e-04 -6.41559185e-04 -9.70833294e-02 -6.22922475e-02  9.81555204e+00
  7.96619279e+00 -1.68160204e-01 -7.32595257e-02  2.38743257e-01 -1.21356280e+00
  1.16335209e-01  1.18731652e+00  6.25421521e-02 -9.81708945e+00 -7.96735644e+00
  1.68513904e-01  7.33592570e-02  2.38236039e-01  1.21424963e+00 -1.17839189e-01
  1.18736095e+00  8.78854699e-06 -2.18200772e-05  7.36340093e-05  2.81908067e-04
  1.05535484e-03  7.66069765e-05 -1.95175657e-05  7.60987555e-03 -3.36577533e-05
  8.16820739e-04  2.11122630e-02 -3.84492725e-03  2.94407546e-05 -2.56367291e-01
 -5.03304683e-06  5.84440952e-03  1.03003657e-02  1.62716293e-05 -1.81516885e-05
  1.44898103e-04 -6.89434683e-02 -5.30647024e-02 -2.49017263e-04  3.18883750e-04
 -3.70716293e-06  4.18055887e-06  1.94379057e-05  3.22425248e-05  3.40507280e-03
 -6.99336791e-05  2.02800932e-05  6.37838561e-04  5.62582792e-04  5.79979526e-04
 -6.83364800e-03 -1.65732773e-03  5.63154682e-04 -8.98172219e-01  4.72356631e-05
  3.30071641e-03  7.76584352e-03  5.31034699e-05  1.00528695e-05 -2.69929332e-04
  7.42869328e-03 -1.15986372e-01 -6.91598693e-04 -4.07568340e-05  5.62806927e-04
 -1.01242515e-03 -1.25973082e-02  4.79027047e-01  2.29866613e+00 -8.16181732e-02
  3.34609735e-02  1.31608352e-04 -5.46620085e+00  2.58288065e+00  6.52517044e-03
 -7.06003011e+00  2.76785170e+00  8.46662582e-03 -4.14411367e-02  1.11844716e-04
  1.32450793e-04 -4.05269093e-02 -6.58317508e-02 -1.96103441e+00  3.78204864e-04
 -2.50710816e-03 -1.57250386e+00 -2.08524096e+00  2.72961370e-03 -6.57964715e-03
  4.35027163e-02 -8.36084868e-01 -2.72596861e+00 -1.47771208e-02  1.68194831e-02
 -2.48333659e-05 -1.21484954e+00  3.37018090e-01 -1.11861650e-03 -5.47582610e-01
 -2.02839723e-01 -3.53464309e-03 -4.08818250e-03 -1.75837208e-04 -2.13882457e-05
  3.89442478e-02  4.89606363e-02  1.17437836e-01 -1.37521808e-03  5.80174047e-04
 -5.81729610e-01 -9.18739705e-01  4.46588258e-02 -1.56761318e+01 -1.09724554e+01
 -1.86422731e-01  2.99767065e-01 -3.45436394e-05 -3.17211380e+00  2.10810897e+00
  4.13693907e-03 -1.92678069e-02  7.73388878e+00  5.66012946e+00 -7.73478708e-02
 -6.42754755e-02  1.47795112e-01 -1.01388409e+00  1.33915809e-01  1.46243341e+00
 -1.93721055e-02  7.72200011e+00  5.65958740e+00 -7.71950120e-02 -6.42999971e-02
 -1.47284315e-01 -1.01481714e+00  1.37891787e-01 -1.46020764e+00  4.73434344e-03