Generated by Psi4
     FORCE                        DF-MP2                        SADLEJ
Number of atoms                            I                7
Charge                                     I               -1
Multiplicity                               I                1
Number of electrons                        I               32
Number of alpha electrons                  I               16
Number of beta electrons                   I               16
Number of basis functions                  I              123
Number of independent functions            I              123
Atomic numbers                             I   N=           7
           6           6           1           1           1           8
           8
Nuclear charges                            R   N=           7
  6.00000000e+00  6.00000000e+00  1.00000000e+00  1.00000000e+00  1.00000000e+00
  8.00000000e+00  8.00000000e+00
Current cartesian coordinates              R   N=          21
  1.15867816e+00  2.45063006e+00 -2.66196663e-03 -1.02987740e-01 -1.92237859e-01
 -2.05708883e-03 -2.55552389e-01  3.95847702e+00 -1.76976173e-03  2.37272076e+00
  2.63150223e+00 -1.67090613e+00  2.37470113e+00  2.63139274e+00  1.66415784e+00
 -2.50223939e+00 -2.33337271e-01  3.02789468e-03  1.42719123e+00 -2.04202567e+00
  1.04923640e-03
Integer atomic weights                     I   N=           7
          12          12           1           1           1          15
          15
Real atomic weights                        R   N=           7
  1.20000000e+01  1.20000000e+01  1.00782503e+00  1.00782503e+00  1.00782503e+00
  1.59949146e+01  1.59949146e+01
Number of primitive shells                 I              110
Number of contracted shells                I               55
Pure/Cartesian d shells                    I                0
Pure/Cartesian f shells                    I                0
Highest angular momentum                   I                2
Largest degree of contraction              I                5
Shell types                                I   N=          55
           0           0           0           0           0           1
           1           1          -2          -2           0           0
           0           0           0           1           1           1
          -2          -2           0           0           0           1
           1           0           0           0           1           1
           0           0           0           1           1           0
           0           0           0           0           1           1
           1          -2          -2           0           0           0
           0           0           1           1           1          -2
          -2
Number of primitives per shell             I   N=          55
           5           2           1           1           1           4
           1           1           2           2           5           2
           1           1           1           4           1           1
           2           2           4           1           1           2
           2           4           1           1           2           2
           4           1           1           2           2           5
           2           1           1           1           4           1
           1           2           2           5           2           1
           1           1           4           1           1           2
           2
Shell to atom map                          I   N=          55
           1           1           1           1           1           1
           1           1           1           1           2           2
           2           2           2           2           2           2
           2           2           3           3           3           3
           3           4           4           4           4           4
           5           5           5           5           5           6
           6           6           6           6           6           6
           6           6           6           7           7           7
           7           7           7           7           7           7
           7
Primitive exponents                        R   N=         110
  5.24063530e+03  7.82204800e+02  1.78350830e+02  5.08159420e+01  1.68235620e+01
  6.17577600e+00  2.41804900e+00  5.11900000e-01  1.56590000e-01  4.79000000e-02
  1.88418000e+01  4.15924000e+00  1.20671000e+00  3.85540000e-01  1.21940000e-01
  3.85680000e-02  1.20670000e+00  3.85500000e-01  1.21900000e-01  3.86000000e-02
  5.24063530e+03  7.82204800e+02  1.78350830e+02  5.08159420e+01  1.68235620e+01
  6.17577600e+00  2.41804900e+00  5.11900000e-01  1.56590000e-01  4.79000000e-02
  1.88418000e+01  4.15924000e+00  1.20671000e+00  3.85540000e-01  1.21940000e-01
  3.85680000e-02  1.20670000e+00  3.85500000e-01  1.21900000e-01  3.86000000e-02
  3.38650140e+01  5.09478800e+00  1.15878600e+00  3.25840000e-01  1.02741000e-01
  3.24000000e-02  1.15880000e+00  3.25800000e-01  1.02700000e-01  3.24000000e-02
  3.38650140e+01  5.09478800e+00  1.15878600e+00  3.25840000e-01  1.02741000e-01
  3.24000000e-02  1.15880000e+00  3.25800000e-01  1.02700000e-01  3.24000000e-02
  3.38650140e+01  5.09478800e+00  1.15878600e+00  3.25840000e-01  1.02741000e-01
  3.24000000e-02  1.15880000e+00  3.25800000e-01  1.02700000e-01  3.24000000e-02
  1.06622850e+04  1.59970970e+03  3.64725260e+02  1.03651790e+02  3.39058050e+01
  1.22874690e+01  4.75680500e+00  1.00427100e+00  3.00686000e-01  9.00300000e-02
  3.48564630e+01  7.84313100e+00  2.30624900e+00  7.23164000e-01  2.14882000e-01
  6.38500000e-02  2.30620000e+00  7.23200000e-01  2.14900000e-01  6.39000000e-02
  1.06622850e+04  1.59970970e+03  3.64725260e+02  1.03651790e+02  3.39058050e+01
  1.22874690e+01  4.75680500e+00  1.00427100e+00  3.00686000e-01  9.00300000e-02
  3.48564630e+01  7.84313100e+00  2.30624900e+00  7.23164000e-01  2.14882000e-01
  6.38500000e-02  2.30620000e+00  7.23200000e-01  2.14900000e-01  6.39000000e-02
Contraction coefficients                   R   N=         110
  2.06539993e-03  1.59324554e-02  8.01119476e-02  2.87877514e-01  7.03009673e-01
  6.94067370e-01  3.40077856e-01  1.00000000e+00  1.00000000e+00  1.00000000e+00
  1.80615059e-02  1.12214925e-01  3.75541979e-01  6.49536597e-01  1.00000000e+00
  1.00000000e+00  2.67978866e-01  8.19993920e-01  4.83796365e-01  6.39336711e-01
  2.06539993e-03  1.59324554e-02  8.01119476e-02  2.87877514e-01  7.03009673e-01
  6.94067370e-01  3.40077856e-01  1.00000000e+00  1.00000000e+00  1.00000000e+00
  1.80615059e-02  1.12214925e-01  3.75541979e-01  6.49536597e-01  1.00000000e+00
  1.00000000e+00  2.67978866e-01  8.19993920e-01  4.83796365e-01  6.39336711e-01
  8.76044950e-03  6.54232910e-02  2.92851374e-01  7.27211150e-01  1.00000000e+00
  1.00000000e+00  1.86447366e-01  8.73088966e-01  9.76214574e-01  3.48056130e-02
  8.76044950e-03  6.54232910e-02  2.92851374e-01  7.27211150e-01  1.00000000e+00
  1.00000000e+00  1.86447366e-01  8.73088966e-01  9.76214574e-01  3.48056130e-02
  8.76044950e-03  6.54232910e-02  2.92851374e-01  7.27211150e-01  1.00000000e+00
  1.00000000e+00  1.86447366e-01  8.73088966e-01  9.76214574e-01  3.48056130e-02
  1.90604745e-03  1.46782352e-02  7.43263084e-02  2.75759025e-01  7.19364732e-01
  6.69996511e-01  3.66229217e-01  1.00000000e+00  1.00000000e+00  1.00000000e+00
  1.99439284e-02  1.25155543e-01  3.92261182e-01  6.27670401e-01  1.00000000e+00
  1.00000000e+00  2.83613619e-01  8.10264660e-01  6.73833443e-01  4.58004278e-01
  1.90604745e-03  1.46782352e-02  7.43263084e-02  2.75759025e-01  7.19364732e-01
  6.69996511e-01  3.66229217e-01  1.00000000e+00  1.00000000e+00  1.00000000e+00
  1.99439284e-02  1.25155543e-01  3.92261182e-01  6.27670401e-01  1.00000000e+00
  1.00000000e+00  2.83613619e-01  8.10264660e-01  6.73833443e-01  4.58004278e-01
Coordinates of each shell                  R   N=         165
  1.15867816e+00  2.45063006e+00 -2.66196663e-03  1.15867816e+00  2.45063006e+00
 -2.66196663e-03  1.15867816e+00  2.45063006e+00 -2.66196663e-03  1.15867816e+00
  2.45063006e+00 -2.66196663e-03  1.15867816e+00  2.45063006e+00 -2.66196663e-03
  1.15867816e+00  2.45063006e+00 -2.66196663e-03  1.15867816e+00  2.45063006e+00
 -2.66196663e-03  1.15867816e+00  2.45063006e+00 -2.66196663e-03  1.15867816e+00
  2.45063006e+00 -2.66196663e-03  1.15867816e+00  2.45063006e+00 -2.66196663e-03
 -1.02987740e-01 -1.92237859e-01 -2.05708883e-03 -1.02987740e-01 -1.92237859e-01
 -2.05708883e-03 -1.02987740e-01 -1.92237859e-01 -2.05708883e-03 -1.02987740e-01
 -1.92237859e-01 -2.05708883e-03 -1.02987740e-01 -1.92237859e-01 -2.05708883e-03
 -1.02987740e-01 -1.92237859e-01 -2.05708883e-03 -1.02987740e-01 -1.92237859e-01
 -2.05708883e-03 -1.02987740e-01 -1.92237859e-01 -2.05708883e-03 -1.02987740e-01
 -1.92237859e-01 -2.05708883e-03 -1.02987740e-01 -1.92237859e-01 -2.05708883e-03
 -2.55552389e-01  3.95847702e+00 -1.76976173e-03 -2.55552389e-01  3.95847702e+00
 -1.76976173e-03 -2.55552389e-01  3.95847702e+00 -1.76976173e-03 -2.55552389e-01
  3.95847702e+00 -1.76976173e-03 -2.55552389e-01  3.95847702e+00 -1.76976173e-03
  2.37272076e+00  2.63150223e+00 -1.67090613e+00  2.37272076e+00  2.63150223e+00
 -1.67090613e+00  2.37272076e+00  2.63150223e+00 -1.67090613e+00  2.37272076e+00
  2.63150223e+00 -1.67090613e+00  2.37272076e+00  2.63150223e+00 -1.67090613e+00
  2.37470113e+00  2.63139274e+00  1.66415784e+00  2.37470113e+00  2.63139274e+00
  1.66415784e+00  2.37470113e+00  2.63139274e+00  1.66415784e+00  2.37470113e+00
  2.63139274e+00  1.66415784e+00  2.37470113e+00  2.63139274e+00  1.66415784e+00
 -2.50223939e+00 -2.33337271e-01  3.02789468e-03 -2.50223939e+00 -2.33337271e-01
  3.02789468e-03 -2.50223939e+00 -2.33337271e-01  3.02789468e-03 -2.50223939e+00
 -2.33337271e-01  3.02789468e-03 -2.50223939e+00 -2.33337271e-01  3.02789468e-03
 -2.50223939e+00 -2.33337271e-01  3.02789468e-03 -2.50223939e+00 -2.33337271e-01
  3.02789468e-03 -2.50223939e+00 -2.33337271e-01  3.02789468e-03 -2.50223939e+00
 -2.33337271e-01  3.02789468e-03 -2.50223939e+00 -2.33337271e-01  3.02789468e-03
  1.42719123e+00 -2.04202567e+00  1.04923640e-03  1.42719123e+00 -2.04202567e+00
  1.04923640e-03  1.42719123e+00 -2.04202567e+00  1.04923640e-03  1.42719123e+00
 -2.04202567e+00  1.04923640e-03  1.42719123e+00 -2.04202567e+00  1.04923640e-03
  1.42719123e+00 -2.04202567e+00  1.04923640e-03  1.42719123e+00 -2.04202567e+00
  1.04923640e-03  1.42719123e+00 -2.04202567e+00  1.04923640e-03  1.42719123e+00
 -2.04202567e+00  1.04923640e-03  1.42719123e+00 -2.04202567e+00  1.04923640e-03
Total Energy                               R     -2.273053028749780e+02
Alpha Orbital Energies                     R   N=         123
 -9.67653519e-04 -4.29920178e-04 -1.48616716e-04 -1.13742234e-04 -4.54175921e-05
 -3.89944761e-05 -1.36899557e-05 -7.49810894e-06 -4.68763694e-06  1.48876032e-07
  3.51435110e-07  4.39746575e-07  7.19582163e-07  1.63110119e-06  2.24988819e-06
  2.90604154e-06  3.74304273e-06  4.35954315e-06  4.65618860e-06  5.56024077e-06
  6.45473618e-06  7.47092120e-06  9.24122690e-06  9.86274617e-06  1.17265616e-05
  1.19903039e-05  1.41111107e-05  1.47185359e-05  1.78432471e-05  2.17663330e-05
  3.01928196e-05  3.08091175e-05  3.09773850e-05  3.72822004e-05  3.81482395e-05
  4.27600651e-05  4.99596814e-05  5.02480187e-05  5.71691509e-05  6.02805158e-05
  6.33439116e-05  6.54114060e-05  7.29910669e-05  7.78464003e-05  9.05787647e-05
  1.08518193e-04  1.21004086e-04  1.42142341e-04  1.44295761e-04  1.47892380e-04
  1.51309323e-04  1.52138116e-04  1.67110890e-04  1.71617707e-04  1.84359654e-04
  2.01174730e-04  2.14751352e-04  2.17897942e-04  2.39543061e-04  2.45286775e-04
  2.71295958e-04  2.76714986e-04  3.07103526e-04  3.39017774e-04  3.87631572e-04
  4.65410186e-04  4.97995434e-04  5.35565907e-04  5.95285764e-04  6.32547746e-04
  6.42660312e-04  6.78481187e-04  6.81901688e-04  7.71967598e-04  7.76998335e-04
  8.10581968e-04  8.27010574e-04  8.61448518e-04  1.25705761e-03  1.50171161e-03
  2.25030749e-03  2.48593306e-03  2.56339046e-03  2.70502804e-03  2.80240033e-03
  3.01138335e-03  3.13479629e-03  3.67669466e-03  3.84368595e-03  3.85488196e-03
  3.92846547e-03  4.01474106e-03  4.10707339e-03  4.34899685e-03  4.47590506e-03
  6.15273645e-03  6.35444536e-03  6.98897266e-03  8.38299152e-03  8.40258878e-03
  8.70765758e-03  9.92679524e-03  9.97198002e-03  1.53812128e-02  1.56909362e-02
  1.81315698e-02  2.98776868e-02  9.69011213e-01  9.77133457e-01  9.77416041e-01
  9.79270769e-01  9.79645647e-01  9.82576775e-01  9.83367014e-01  9.83473156e-01
  9.83583295e-01  9.90481027e-01  9.91845908e-01  9.93008593e-01  9.99695743e-01
  9.99703684e-01  9.99853618e-01  9.99853641e-01
Alpha MO coefficients                      R   N=       15129
  2.65253125e-03  6.33153332e-03 -5.61081117e-02 -1.17324596e+00 -3.52089869e+00
  1.04979687e-01  2.12159007e-01 -1.61488765e-04  4.63790267e-02 -8.88523092e-01
 -2.20427788e-04 -4.51638584e-01  6.26385600e-02 -3.02174109e-03 -2.82530341e-02
 -3.38712323e-05 -6.24041471e-05 -1.06815277e-02  2.71511554e-03 -5.52627600e-01
  3.79437796e-04  1.12369964e-03 -2.30728964e-01  1.11857105e-02  2.00911783e-03
  1.26215663e-02 -4.14899426e-02  1.50589739e+00  2.40822712e+00 -6.11964007e-03
 -1.13135905e-02  3.79838693e-04  6.39769979e-01  1.57000499e+00  7.64099186e-04
  1.02169319e+00  2.05291087e+00  2.52775550e-03 -4.34338060e-04  1.26796064e-04
  2.65297585e-04  3.01040958e-03 -1.64440163e-02 -1.28236969e-01  1.01808481e-03
  2.71330580e-03 -2.02683783e-01  3.74034768e-01  2.83148852e-03  7.92606870e-01
 -3.42043276e-01  2.83100922e-02 -3.27758366e-02 -1.79563630e-05  3.07206428e-01
 -1.29858056e-01 -8.89531205e-05  5.13632939e-02 -2.47224883e-01  6.31488197e-01
 -3.08045482e-02  4.03385829e-02 -6.11271236e-03  2.30062219e-01  3.39813943e-01
 -1.49428289e-01  5.11581462e-02 -2.47622518e-01  6.28796593e-01 -3.07426592e-02
  4.02378085e-02  6.07200988e-03  2.30218081e-01  3.39197999e-01  1.49048898e-01
  3.52450198e-03  1.37791356e-02 -1.14982062e-01  3.22805845e-01 -5.98406037e-01
  1.12830605e-01  1.81133358e-01 -1.92955676e-04 -5.57118065e-01 -9.17336887e-01
  1.21555066e-03 -3.90590632e-01  3.02978789e-02  6.20027446e-05  9.11000011e-03
 -3.05797162e-05  1.32037254e-04 -2.24700367e-02 -4.08827809e-02  1.87208410e-01
  8.87404614e-04  3.60124634e-05 -1.93352516e-01 -1.51124684e-01  3.25669834e-03
  1.23396532e-02 -1.01062770e-01  2.87567071e-01 -3.31074100e-01  8.28772921e-02
  2.05939942e-01 -1.94688967e-04 -4.07446770e-01 -1.05241299e+00  1.22770628e-03
  2.60367095e-01 -1.43192950e-01 -1.65973080e-04  9.13603833e-03  9.33609969e-05
  3.53657343e-05  4.73253982e-02  1.29746943e-02  1.97299189e-01 -2.98508873e-04
  4.02840277e-04  1.67083828e-01  1.69119940e-01 -3.52916632e-05  2.97897749e-03
 -3.12248923e-02  2.12475840e-02 -8.36257250e-03 -7.25199452e-03  6.46131881e-04
  1.70550650e-05 -8.64526364e-01  2.58310021e-01 -7.11676145e-05 -1.98818251e+00
  1.09651887e+00  1.76491147e-03  3.00171482e-02  1.36283874e-04 -4.98832374e-05
  5.75144151e-02  6.05094428e-02 -1.05915370e-01  4.02926946e-04  3.71056326e-04
  2.53338724e-01 -6.45619928e-02  2.33215554e-04  1.40830173e-03 -2.02119841e-02
 -6.48776262e-02  7.04914918e-01 -4.95117225e-02  1.94938610e-02  2.95161214e-05
  5.20837621e-01 -3.22213760e-01  4.94933944e-05  2.22153488e+00 -9.68709400e-01
 -9.79568733e-04  1.01869230e-02 -1.17762042e-05  5.63678561e-06  2.80675991e-02
  1.62480542e-02 -6.61938157e-02 -1.98115609e-03 -2.45232303e-04  1.10408793e+00
  9.61782497e-01 -5.74395692e-02 -7.55036452e-02 -1.02605924e+00 -4.28862319e-02
 -4.38991646e-02  3.55226920e-05  5.08043928e-02  1.57117488e-01 -1.58916492e-04
  6.90902689e-03 -8.60546604e-02  4.01979891e-01  8.60894329e-03  6.70045327e-02
 -1.05068551e-02 -9.31236445e-02 -5.75554833e-04  1.21336478e-01  6.70679356e-03
 -8.37963702e-02  4.00254723e-01  8.61701449e-03  6.68669550e-02  1.05597401e-02
 -9.40468300e-02 -1.51855652e-03 -1.22053156e-01  9.44246709e-04  2.03773899e-02
 -1.16786847e-01  2.07788872e-01 -2.64179805e-01  1.23355678e-01 -2.02117026e-01
  5.43974752e-04 -4.61709422e-01  9.73147845e-01 -1.77700194e-03 -1.21821299e-02
 -6.36620500e-01  1.88890632e-03  9.51385934e-03 -3.18040955e-06 -5.60262823e-05
 -1.96925725e-02  2.60127326e-02  1.67448296e-01  4.87440228e-04 -4.28744418e-04
 -1.84885874e-01  5.56782622e-02 -1.08967384e-03 -2.52138710e-02  1.40596667e-01
 -2.18427285e-01 -1.52821936e-01  2.38586640e-01  2.31867400e-02 -6.88574258e-04
 -1.04636700e+00 -2.30346891e-01  2.36496779e-03  4.58069571e-01  3.29794512e-01
 -1.97753517e-03 -8.30902489e-03  1.98471993e-05  3.60867093e-05  2.06951981e-02
 -2.68552805e-02 -1.45832996e-01  4.97929340e-04  2.19522814e-04  3.08993244e-02
 -2.51457709e-01  1.10825080e-05 -3.62968122e-05  1.36313798e-04 -1.42505275e-03
 -1.80436699e-03 -4.83137769e-05 -5.03475773e-05 -3.81461487e-02 -8.02884856e-03
  2.23835370e-03  9.89573310e-01 -3.01765784e-03 -3.20135745e-03 -3.65869011e-01
  3.38909037e-04 -5.13331133e-02 -5.56815425e-03  4.09890364e-04  5.43937767e-04
  5.83395187e-04 -2.24213101e-01 -1.33041067e-01 -3.19505161e-03 -3.58201143e-04
 -1.14611441e-06  5.89008167e-06  4.40163342e-05 -5.58192622e-03 -3.57318711e-03
  2.71280985e-04 -1.20538040e-04 -5.68412168e-02  1.11830960e-02 -4.91585260e-03
 -4.85968761e-01  2.56054651e-03 -5.14619325e-04 -3.60418501e-01 -2.76230912e-04
  2.26132750e-01 -9.97891237e-02  6.39995135e-04  3.39344478e-04 -3.55938662e-03
  1.82340096e+00 -6.65157680e-01  7.61253628e-03  5.99711834e-03  2.38566195e-04
 -7.11665150e-03  3.97778752e-03  6.21463918e-05 -7.90369518e-04  2.47294304e-02
 -3.40199564e-03  2.50632516e-03  5.07644607e-02 -9.49656405e-03  1.63865163e+00
 -4.38545428e-01  3.74609348e-02 -2.86727217e-02 -3.41217957e-02 -4.68828243e-01
 -2.68371880e-01  5.45381003e-01  9.30879365e-03 -1.62958078e+00  4.38892872e-01
 -3.67323973e-02  2.94969367e-02 -3.41242897e-02  4.68087811e-01  2.68953896e-01
  5.40390992e-01 -2.52379033e-05  1.28859748e-04 -1.06296248e-03  4.86853636e-03
  8.45170288e-03 -6.82851234e-04 -9.26748372e-04 -2.68655041e-01  6.04368198e-03
  5.56791690e-03  1.25288660e+00  1.89704208e-03  5.31928834e-04  9.08233810e-01
 -1.14630407e-04  3.95912083e-02  6.24212505e-04  1.65299099e-04  2.16944960e-04
 -2.54812376e-03  4.63411127e-01  1.61744752e-01  3.34377766e-04  1.24604825e-03
  2.82128189e-05 -1.16979688e-04  7.97803643e-04 -3.39936173e-03 -6.08610422e-03
  5.80225691e-04  8.11965914e-04  1.83455396e-01 -2.95890858e-03 -5.82447641e-03
 -8.89672691e-01 -5.07599246e-04  3.66694552e-04 -3.15461009e-01  2.47708174e-05
  5.14762107e-03 -1.32022432e-02  2.19347057e-04  4.12814948e-05  1.39565875e-03
  3.28059607e-02 -2.65290591e-01  8.09988535e-04 -1.40372481e-03 -1.05232056e-04
  3.23250908e-04 -1.61281740e-03  4.61092690e-03  2.60868497e-02  1.57208397e-04
  4.14961481e-04  1.67752201e-02 -1.55754223e-03  4.51648044e-03 -4.24782340e-01
  1.25948283e-03  3.01725725e-03  8.44899015e-01  1.29210072e-06  8.65781837e-02
  1.04937231e-01  2.94986344e-04 -2.09197140e-05  2.10880767e-04  2.56234807e-01
 -4.90306296e-01  5.89912774e-04 -1.90775142e-03 -2.46211331e-06  1.88254510e-05
 -1.91249501e-04  2.19378947e-02 -2.89656967e-02  2.49038585e-04 -3.86861437e-04
  2.74282839e-01  3.99451175e-03 -2.31920479e-03  1.48710212e+00 -1.68983409e-03
 -3.49806376e-03  1.51235351e+00  5.42863242e-04 -8.01185101e-03 -1.31383125e-01
  6.68930329e-05  1.57168817e-04  4.87206801e-03 -1.52124791e-01 -6.18675101e-01
  4.78717838e-03  4.18087223e-04 -4.76936043e-04 -4.03502404e-03 -1.60455818e-03
 -3.61604529e-04 -2.83258309e-05  2.84959283e-02 -2.17364259e-03 -1.06911408e-03
  2.45190988e-01  4.97366689e-02 -5.12961428e-01  1.27282963e+00 -1.05173031e-01
 -1.08528984e-01  1.06512178e-02  4.77366900e-01  2.08268587e-01 -3.73589541e-01
 -5.09836748e-02  5.15829366e-01 -1.27826889e+00  1.05865969e-01  1.08542219e-01
  1.09759617e-02 -4.80290378e-01 -2.12509370e-01 -3.74029740e-01 -8.90068842e-06
 -4.04231156e-05  7.46501151e-04 -4.00615197e-03  3.12125327e-03  5.85147388e-04
 -1.33280338e-04  2.26008448e-01 -5.38273609e-03  1.61857725e-03 -8.47490943e-01
 -5.35941123e-04 -2.86291597e-03 -9.38078724e-01  1.24332876e-04 -9.99244257e-02
  7.49184131e-03 -2.43514102e-04  1.32986129e-04  2.53591762e-03 -3.74101008e-01
  5.99674923e-02 -2.48788383e-03 -8.79379730e-04 -8.34197837e-06 -5.49847873e-05
  1.00699639e-03 -4.94428285e-03 -2.55801731e-03 -2.21733884e-04  8.50996246e-04
  3.04530634e-01  3.55849743e-03 -7.11028558e-03 -1.22180254e+00 -1.73193008e-03
 -6.18951442e-03 -9.16830096e-01  7.86798023e-06  8.16392645e-02 -7.20606180e-02
  1.56288962e-05  2.43386713e-04  3.09309825e-03  2.76101163e-01 -4.00397270e-01
  2.44347892e-03  2.02574017e-03 -1.04264714e-03  2.91502184e-03 -1.28023075e-02
 -2.11066192e-01  4.93902947e-01 -7.58143776e-03  2.08605286e-02  9.55106112e-05
 -4.32077210e-01  1.88622833e-01 -2.56032072e-03  1.66434560e+00 -1.32320228e+00
  8.82895040e-03  4.88183145e-02  2.15054330e-04 -7.84358463e-05  2.03720164e-02
  3.64748647e-02 -3.87610826e-01 -2.09406601e-03 -6.44723645e-04 -1.55808334e+00
 -1.18965509e+00 -1.58891929e-03  3.05357606e-03 -6.96547770e-03 -1.82402025e-01
 -9.97469160e-01  1.93801203e-01 -1.04241838e-01 -1.48393984e-04 -1.29443025e+00
  9.17262397e-01 -9.03466120e-04 -3.38234557e+00  1.90645260e+00 -7.05395205e-03
 -1.07433640e-02 -5.81973604e-04  3.81297424e-04  7.70908655e-02  6.47972089e-02
 -7.44201164e-02 -4.38729221e-03 -2.16265305e-04 -1.05595206e+00 -8.22958574e-01
  1.09942413e-01 -3.68902019e+00 -1.88660764e+00 -3.35967073e-02 -7.26653571e-02
  4.57531853e-05 -1.55829381e+00  6.50034003e-01 -9.31786962e-04 -6.32296591e-02
  1.89118282e+00  1.10818191e+00  3.40960421e-02  4.98485364e-02  2.81374374e-03
 -6.18495524e-01  2.62786532e-01  5.72342774e-01 -6.35915565e-02  1.91251359e+00
  1.10466828e+00  3.40217856e-02  4.94742519e-02 -2.57256594e-03 -6.22077667e-01
  2.62469345e-01 -5.79580769e-01  9.47908766e-03 -1.55952578e-02 -1.89984506e-02
  1.46442719e-01 -1.12801456e+00 -1.55859213e-01 -8.63607458e-02  6.81202753e-04
  5.88238523e-01  2.75130146e-01 -3.16242998e-03 -1.03716338e+00 -1.72072917e+00
  1.95884256e-03 -2.98234157e-02 -1.42114490e-04 -9.35078974e-05  4.03810796e-02
  5.39628759e-02 -3.75803179e-02 -6.99587655e-04  1.93642807e-04 -2.32618697e-03
 -3.35031165e-01 -1.18962973e-02  2.04376119e-02  4.25194758e-03 -8.43667130e-02
  1.25289339e+00 -4.55826828e-02  1.77391016e-01 -8.28466468e-04  1.61122387e-01
 -6.68563599e-01  3.41261612e-03  1.53450140e-01  1.66017433e+00 -6.34040127e-04
  2.20895846e-02 -1.91518695e-04  1.68404104e-04  5.21246360e-02  4.73646593e-02
  1.27871239e-01  3.16904600e-04  1.05263679e-03 -2.20187232e-01 -6.21715717e-02
 -3.72898880e-03  1.24040779e-02 -1.05860046e-01  1.05637247e+00  4.29277499e+00
  4.04508432e-02  1.11915240e-01 -2.01961090e-04  2.03258932e-01 -5.77842149e-01
  2.53048291e-03 -8.86269747e-03  1.32457164e+00 -5.45034112e-03 -2.07383371e-02
 -2.28660143e-04 -1.68616117e-04 -1.07779420e-02 -6.72965029e-03  5.21519651e-01
 -8.47924268e-04  2.45210328e-03  3.81237151e-01  1.86632979e-02  1.30434172e-02
 -4.39470281e-02  3.30147809e-01 -1.29246013e+00 -4.69813805e+00 -8.04743751e-02
 -1.39947127e-01 -5.26335640e-05  4.76184002e-01  9.19886760e-01 -3.12362034e-03
 -2.31029794e-01 -2.36637066e+00 -4.01944551e-03  6.08779008e-04  8.71604132e-05
  8.60352013e-05 -6.01680094e-02  5.54339131e-02  1.90017255e-01  1.27468689e-03
  9.95528567e-04  5.07736771e-01 -2.77326579e-01 -9.92409611e-03  8.91032026e-01
 -1.91400321e-01 -5.76379910e-02  6.38684991e-02 -1.79455606e-04  3.69675243e-01
 -2.40099197e-03 -8.53751298e-04  6.24464186e-03 -1.30335503e+00 -4.75064358e-01
  4.78734520e-02  2.13880578e-02 -3.98572934e-02  4.24472436e-01  1.51297676e-01
 -2.21132653e-01  6.52984458e-03 -1.31125937e+00 -4.63234924e-01  4.72653124e-02
  2.07737949e-02  3.95238472e-02  4.29402397e-01  1.52077773e-01  2.24825286e-01
 -7.96727498e-03  1.13946690e-02  4.39698296e-02 -2.75815260e-01  1.94107161e+00
  1.31665374e-01 -6.45008524e-02 -5.50611944e-04 -4.13150670e-01  1.35341607e-01
  1.54526578e-03  1.40560689e+00 -2.34427292e-01  1.02581202e-03  3.07981056e-02
  2.44640330e-04 -1.21518231e-04 -4.45842605e-02  5.50198774e-02 -7.58658228e-02
  4.77557842e-04  5.30276521e-04  8.39040260e-02 -2.69645757e-01 -7.19309171e-03
  1.03631875e-02  3.88873300e-02 -2.43186389e-01  2.05650237e+00 -1.24023174e-01
  4.06754816e-02 -3.87848449e-04  3.13960090e-01 -1.61717270e-01  9.32485468e-04
 -1.20838283e+00  1.01228178e+00  1.71379981e-03  2.85679836e-02 -1.61513619e-04
  4.65770491e-05 -5.03958632e-02  4.83982207e-02 -8.45618934e-02 -3.68562374e-05
  8.28765611e-04  2.38804493e-01 -1.25568145e-01  1.57829158e-02 -3.98820123e-02
  3.21962184e-01 -2.61064563e+00 -4.50045737e+00 -7.42008192e-02 -1.30071281e-01
 -9.05479314e-06 -1.85600006e-01 -3.00846529e-01 -4.93415693e-04 -7.80940057e-01
 -4.45698390e+00  1.21815787e-02  3.11411900e-02  2.10670911e-04  1.30926805e-04
  1.03223420e-02 -3.48786038e-02 -3.56470570e-01 -4.31788133e-03 -6.63422911e-03
 -8.75792789e-01  6.90260695e-01  3.33786799e-02 -8.25733506e-02  3.42482046e-01
 -2.30137906e+00 -4.58714954e+00  2.40809783e-02  6.34699342e-02 -1.22492565e-04
 -9.01030095e-01 -1.02255519e+00 -1.62278318e-03 -3.73861469e-01  2.11024312e+00
 -1.91031609e-02 -2.14824193e-02 -1.67747371e-04 -1.39635206e-04  1.57123077e-02
 -6.84904030e-03 -4.69151753e-01 -2.78332941e-03 -6.53548281e-03 -9.84845011e-01
 -5.30586577e-02 -2.43521025e-02  1.15166587e+00  1.54585398e+00  1.66119244e-02
 -7.06649530e-02  1.03346117e-04 -1.20821071e-01  9.92833850e-02 -4.73066040e-04
 -5.54124482e-02  2.26712963e+00  1.23599697e+00 -4.37020514e-02 -4.24914662e-02
  6.83623133e-02 -3.53077372e-01 -5.47071837e-02  4.62698287e-01 -5.57909616e-02
  2.28494138e+00  1.24942084e+00 -4.37249216e-02 -4.23331322e-02 -6.82802856e-02
 -3.56072848e-01 -5.21254495e-02 -4.67063403e-01 -5.82267639e-04 -1.92828992e-03
  7.01384142e-02 -4.09614284e-01  1.37601614e+00  3.79198977e-02  9.34693043e-03
 -9.67275821e-05 -1.10167641e-01  1.20933412e-01 -1.98455025e-04  1.01910957e+00
 -1.36429527e-01 -6.41403815e-04  2.78376060e-02  1.75197491e-04  3.30628465e-05
 -3.21303614e-02 -3.28129330e-02 -1.36011967e-01 -1.03562286e-03  3.02578346e-05
  2.50055629e-01  2.55645591e-01 -2.21781546e-03  2.02173627e-03  5.00166357e-02
 -3.56632552e-01  1.12534954e+00 -1.33020878e-02  3.44459502e-02 -8.43425497e-05
  2.06052679e-01  1.48546550e-01 -3.13530906e-04  1.61441057e-02  1.08692430e+00
 -3.78230796e-04  2.60195667e-02 -6.91359030e-05  1.25802114e-04  4.20259454e-02
  1.92390056e-02 -1.52720917e-01  4.81431136e-04 -7.75113467e-04 -4.17774189e-01
 -1.52833285e-01 -3.93663148e-06  1.02850523e-05 -5.89458199e-05  1.77611436e-04
 -6.77585474e-03 -4.81204788e-05  8.07052206e-05 -1.11504978e-01 -1.85713431e-03
  2.38724512e-03 -4.72746172e+00  2.77679123e-04  5.21803742e-03 -8.09809806e+00
  3.69766668e-05 -6.06609593e-02 -2.82168598e-02  2.48526919e-05  3.54307489e-05
  4.16417491e-03 -2.07528689e+00 -2.81960724e-01 -2.02645659e-03 -2.95011510e-03
 -3.71909416e-05  9.03705508e-05 -5.78267281e-04  4.59486020e-03  1.46114955e-02
  2.81444037e-05  9.36891378e-06 -1.20151123e-02  1.61028735e-03  3.21688348e-03
 -2.08884258e-01 -7.48270384e-03 -3.41293138e-04  1.32494828e-01 -1.66134675e-07
 -1.71313370e-03 -2.08697684e-02  1.10051373e-04 -5.99116782e-05 -2.46715648e-03
 -1.47734670e-01  2.05827626e-01  7.76425674e-04 -2.63015410e-03  9.71128059e-05
 -3.87288176e-03 -3.88138589e-03 -7.32715261e-05  4.55820804e-05  1.32482380e-02
 -7.83966690e-04  6.31738974e-04  1.07071788e-01  6.42488324e-02 -9.68109527e+00
 -7.82212071e+00  1.67786962e-01  7.32788586e-02 -2.37803752e-01  1.19434841e+00
 -1.31992776e-01 -1.16579162e+00 -6.44931873e-02  9.68230562e+00  7.82299326e+00
 -1.68138954e-01 -7.33745240e-02 -2.37295626e-01 -1.19485798e+00  1.33526459e-01
 -1.16582285e+00 -1.07231033e-05  2.62135835e-05 -9.62862408e-05 -1.83351588e-04
 -9.42644426e-04 -7.98762288e-05  1.88464545e-05 -8.34147217e-03  9.97365639e-05
 -8.13142773e-04 -1.79557687e-02  4.00105112e-03  1.34912973e-04  2.84112067e-01
  7.03011751e-06 -5.82372629e-03 -1.02388238e-02 -1.62627496e-05  1.85604513e-05
 -1.74996425e-04  7.32918213e-02  5.29541562e-02  2.80372906e-04 -3.01775883e-04
  3.43275572e-06 -3.30460004e-06 -2.52243030e-05 -1.49048899e-05 -3.60485247e-03
  7.05816778e-05 -2.05627900e-05 -7.72620144e-04 -5.75895730e-04 -5.83627714e-04
  7.13221210e-03  1.76144863e-03 -5.00811033e-04  9.07280638e-01 -4.74113839e-05
 -3.19367654e-03 -7.55076315e-03 -5.39992964e-05 -9.43929050e-06  2.67817134e-04
 -9.98051005e-03  1.16309757e-01  6.89193574e-04  2.01151920e-05  4.55577872e-04
 -7.42455931e-04 -1.58224080e-02  5.28842544e-01  2.31051431e+00 -8.26321202e-02
  3.46470910e-02  1.30582322e-04 -5.39857921e+00  2.52037881e+00  6.14042601e-03
 -6.97350041e+00  2.79239904e+00  7.94121882e-03 -4.21511402e-02  1.06205533e-04
  1.24686835e-04 -4.10198834e-02 -6.46758689e-02 -1.90399642e+00  3.00936752e-04
 -2.24995742e-03 -1.51403239e+00 -2.02758388e+00  2.81212907e-03 -6.78547348e-03
  4.55135594e-02 -8.63334321e-01 -2.65473323e+00 -1.53968112e-02  1.64013379e-02
 -2.37386785e-05 -1.14437723e+00  2.83940593e-01 -1.08280090e-03 -4.23785877e-01
 -2.81567983e-01 -3.26362263e-03 -3.17029962e-03 -1.72066909e-04 -1.89111586e-05
  3.83934780e-02  4.80934526e-02  1.13723519e-01 -1.35946949e-03  6.85937290e-04
 -5.21076540e-01 -9.14919160e-01  4.73326530e-02 -1.54122141e+01 -1.06716875e+01
 -1.86981289e-01  2.99947973e-01 -2.73096073e-05 -3.09241171e+00  2.07456794e+00
  3.96511184e-03 -2.06548096e-02  7.58063427e+00  5.48955267e+00 -7.76344019e-02
 -6.24330754e-02  1.45532120e-01 -9.81123724e-01  1.27081809e-01  1.43615166e+00
 -2.07521013e-02  7.56992660e+00  5.48934092e+00 -7.75030707e-02 -6.24598354e-02
 -1.45037462e-01 -9.82138256e-01  1.30766547e-01 -1.43419312e+00  4.92564438e-03