Generated by Psi4
     FORCE                        DF-MP2                        SADLEJ
Number of atoms                            I                7
Charge                                     I               -1
Multiplicity                               I                1
Number of electrons                        I               32
Number of alpha electrons                  I               16
Number of beta electrons                   I               16
Number of basis functions                  I              123
Number of independent functions            I              123
Atomic numbers                             I   N=           7
           6           6           1           1           1           8
           8
Nuclear charges                            R   N=           7
  6.00000000e+00  6.00000000e+00  1.00000000e+00  1.00000000e+00  1.00000000e+00
  8.00000000e+00  8.00000000e+00
Current cartesian coordinates              R   N=          21
  1.15867816e+00  2.45063006e+00 -2.66196663e-03 -1.02987740e-01 -1.92237859e-01
 -2.05708883e-03 -2.55552389e-01  3.95847702e+00 -1.76976173e-03  2.37272076e+00
  2.63150223e+00 -1.67090613e+00  2.37470113e+00  2.63139274e+00  1.66415784e+00
 -2.50223939e+00 -2.33337271e-01  3.02789468e-03  1.42719123e+00 -2.04202567e+00
  1.04923640e-03
Integer atomic weights                     I   N=           7
          12          12           1           1           1          15
          15
Real atomic weights                        R   N=           7
  1.20000000e+01  1.20000000e+01  1.00782503e+00  1.00782503e+00  1.00782503e+00
  1.59949146e+01  1.59949146e+01
Number of primitive shells                 I              110
Number of contracted shells                I               55
Pure/Cartesian d shells                    I                0
Pure/Cartesian f shells                    I                0
Highest angular momentum                   I                2
Largest degree of contraction              I                5
Shell types                                I   N=          55
           0           0           0           0           0           1
           1           1          -2          -2           0           0
           0           0           0           1           1           1
          -2          -2           0           0           0           1
           1           0           0           0           1           1
           0           0           0           1           1           0
           0           0           0           0           1           1
           1          -2          -2           0           0           0
           0           0           1           1           1          -2
          -2
Number of primitives per shell             I   N=          55
           5           2           1           1           1           4
           1           1           2           2           5           2
           1           1           1           4           1           1
           2           2           4           1           1           2
           2           4           1           1           2           2
           4           1           1           2           2           5
           2           1           1           1           4           1
           1           2           2           5           2           1
           1           1           4           1           1           2
           2
Shell to atom map                          I   N=          55
           1           1           1           1           1           1
           1           1           1           1           2           2
           2           2           2           2           2           2
           2           2           3           3           3           3
           3           4           4           4           4           4
           5           5           5           5           5           6
           6           6           6           6           6           6
           6           6           6           7           7           7
           7           7           7           7           7           7
           7
Primitive exponents                        R   N=         110
  5.24063530e+03  7.82204800e+02  1.78350830e+02  5.08159420e+01  1.68235620e+01
  6.17577600e+00  2.41804900e+00  5.11900000e-01  1.56590000e-01  4.79000000e-02
  1.88418000e+01  4.15924000e+00  1.20671000e+00  3.85540000e-01  1.21940000e-01
  3.85680000e-02  1.20670000e+00  3.85500000e-01  1.21900000e-01  3.86000000e-02
  5.24063530e+03  7.82204800e+02  1.78350830e+02  5.08159420e+01  1.68235620e+01
  6.17577600e+00  2.41804900e+00  5.11900000e-01  1.56590000e-01  4.79000000e-02
  1.88418000e+01  4.15924000e+00  1.20671000e+00  3.85540000e-01  1.21940000e-01
  3.85680000e-02  1.20670000e+00  3.85500000e-01  1.21900000e-01  3.86000000e-02
  3.38650140e+01  5.09478800e+00  1.15878600e+00  3.25840000e-01  1.02741000e-01
  3.24000000e-02  1.15880000e+00  3.25800000e-01  1.02700000e-01  3.24000000e-02
  3.38650140e+01  5.09478800e+00  1.15878600e+00  3.25840000e-01  1.02741000e-01
  3.24000000e-02  1.15880000e+00  3.25800000e-01  1.02700000e-01  3.24000000e-02
  3.38650140e+01  5.09478800e+00  1.15878600e+00  3.25840000e-01  1.02741000e-01
  3.24000000e-02  1.15880000e+00  3.25800000e-01  1.02700000e-01  3.24000000e-02
  1.06622850e+04  1.59970970e+03  3.64725260e+02  1.03651790e+02  3.39058050e+01
  1.22874690e+01  4.75680500e+00  1.00427100e+00  3.00686000e-01  9.00300000e-02
  3.48564630e+01  7.84313100e+00  2.30624900e+00  7.23164000e-01  2.14882000e-01
  6.38500000e-02  2.30620000e+00  7.23200000e-01  2.14900000e-01  6.39000000e-02
  1.06622850e+04  1.59970970e+03  3.64725260e+02  1.03651790e+02  3.39058050e+01
  1.22874690e+01  4.75680500e+00  1.00427100e+00  3.00686000e-01  9.00300000e-02
  3.48564630e+01  7.84313100e+00  2.30624900e+00  7.23164000e-01  2.14882000e-01
  6.38500000e-02  2.30620000e+00  7.23200000e-01  2.14900000e-01  6.39000000e-02
Contraction coefficients                   R   N=         110
  2.06539993e-03  1.59324554e-02  8.01119476e-02  2.87877514e-01  7.03009673e-01
  6.94067370e-01  3.40077856e-01  1.00000000e+00  1.00000000e+00  1.00000000e+00
  1.80615059e-02  1.12214925e-01  3.75541979e-01  6.49536597e-01  1.00000000e+00
  1.00000000e+00  2.67978866e-01  8.19993920e-01  4.83796365e-01  6.39336711e-01
  2.06539993e-03  1.59324554e-02  8.01119476e-02  2.87877514e-01  7.03009673e-01
  6.94067370e-01  3.40077856e-01  1.00000000e+00  1.00000000e+00  1.00000000e+00
  1.80615059e-02  1.12214925e-01  3.75541979e-01  6.49536597e-01  1.00000000e+00
  1.00000000e+00  2.67978866e-01  8.19993920e-01  4.83796365e-01  6.39336711e-01
  8.76044950e-03  6.54232910e-02  2.92851374e-01  7.27211150e-01  1.00000000e+00
  1.00000000e+00  1.86447366e-01  8.73088966e-01  9.76214574e-01  3.48056130e-02
  8.76044950e-03  6.54232910e-02  2.92851374e-01  7.27211150e-01  1.00000000e+00
  1.00000000e+00  1.86447366e-01  8.73088966e-01  9.76214574e-01  3.48056130e-02
  8.76044950e-03  6.54232910e-02  2.92851374e-01  7.27211150e-01  1.00000000e+00
  1.00000000e+00  1.86447366e-01  8.73088966e-01  9.76214574e-01  3.48056130e-02
  1.90604745e-03  1.46782352e-02  7.43263084e-02  2.75759025e-01  7.19364732e-01
  6.69996511e-01  3.66229217e-01  1.00000000e+00  1.00000000e+00  1.00000000e+00
  1.99439284e-02  1.25155543e-01  3.92261182e-01  6.27670401e-01  1.00000000e+00
  1.00000000e+00  2.83613619e-01  8.10264660e-01  6.73833443e-01  4.58004278e-01
  1.90604745e-03  1.46782352e-02  7.43263084e-02  2.75759025e-01  7.19364732e-01
  6.69996511e-01  3.66229217e-01  1.00000000e+00  1.00000000e+00  1.00000000e+00
  1.99439284e-02  1.25155543e-01  3.92261182e-01  6.27670401e-01  1.00000000e+00
  1.00000000e+00  2.83613619e-01  8.10264660e-01  6.73833443e-01  4.58004278e-01
Coordinates of each shell                  R   N=         165
  1.15867816e+00  2.45063006e+00 -2.66196663e-03  1.15867816e+00  2.45063006e+00
 -2.66196663e-03  1.15867816e+00  2.45063006e+00 -2.66196663e-03  1.15867816e+00
  2.45063006e+00 -2.66196663e-03  1.15867816e+00  2.45063006e+00 -2.66196663e-03
  1.15867816e+00  2.45063006e+00 -2.66196663e-03  1.15867816e+00  2.45063006e+00
 -2.66196663e-03  1.15867816e+00  2.45063006e+00 -2.66196663e-03  1.15867816e+00
  2.45063006e+00 -2.66196663e-03  1.15867816e+00  2.45063006e+00 -2.66196663e-03
 -1.02987740e-01 -1.92237859e-01 -2.05708883e-03 -1.02987740e-01 -1.92237859e-01
 -2.05708883e-03 -1.02987740e-01 -1.92237859e-01 -2.05708883e-03 -1.02987740e-01
 -1.92237859e-01 -2.05708883e-03 -1.02987740e-01 -1.92237859e-01 -2.05708883e-03
 -1.02987740e-01 -1.92237859e-01 -2.05708883e-03 -1.02987740e-01 -1.92237859e-01
 -2.05708883e-03 -1.02987740e-01 -1.92237859e-01 -2.05708883e-03 -1.02987740e-01
 -1.92237859e-01 -2.05708883e-03 -1.02987740e-01 -1.92237859e-01 -2.05708883e-03
 -2.55552389e-01  3.95847702e+00 -1.76976173e-03 -2.55552389e-01  3.95847702e+00
 -1.76976173e-03 -2.55552389e-01  3.95847702e+00 -1.76976173e-03 -2.55552389e-01
  3.95847702e+00 -1.76976173e-03 -2.55552389e-01  3.95847702e+00 -1.76976173e-03
  2.37272076e+00  2.63150223e+00 -1.67090613e+00  2.37272076e+00  2.63150223e+00
 -1.67090613e+00  2.37272076e+00  2.63150223e+00 -1.67090613e+00  2.37272076e+00
  2.63150223e+00 -1.67090613e+00  2.37272076e+00  2.63150223e+00 -1.67090613e+00
  2.37470113e+00  2.63139274e+00  1.66415784e+00  2.37470113e+00  2.63139274e+00
  1.66415784e+00  2.37470113e+00  2.63139274e+00  1.66415784e+00  2.37470113e+00
  2.63139274e+00  1.66415784e+00  2.37470113e+00  2.63139274e+00  1.66415784e+00
 -2.50223939e+00 -2.33337271e-01  3.02789468e-03 -2.50223939e+00 -2.33337271e-01
  3.02789468e-03 -2.50223939e+00 -2.33337271e-01  3.02789468e-03 -2.50223939e+00
 -2.33337271e-01  3.02789468e-03 -2.50223939e+00 -2.33337271e-01  3.02789468e-03
 -2.50223939e+00 -2.33337271e-01  3.02789468e-03 -2.50223939e+00 -2.33337271e-01
  3.02789468e-03 -2.50223939e+00 -2.33337271e-01  3.02789468e-03 -2.50223939e+00
 -2.33337271e-01  3.02789468e-03 -2.50223939e+00 -2.33337271e-01  3.02789468e-03
  1.42719123e+00 -2.04202567e+00  1.04923640e-03  1.42719123e+00 -2.04202567e+00
  1.04923640e-03  1.42719123e+00 -2.04202567e+00  1.04923640e-03  1.42719123e+00
 -2.04202567e+00  1.04923640e-03  1.42719123e+00 -2.04202567e+00  1.04923640e-03
  1.42719123e+00 -2.04202567e+00  1.04923640e-03  1.42719123e+00 -2.04202567e+00
  1.04923640e-03  1.42719123e+00 -2.04202567e+00  1.04923640e-03  1.42719123e+00
 -2.04202567e+00  1.04923640e-03  1.42719123e+00 -2.04202567e+00  1.04923640e-03
Total Energy                               R     -2.273047156780592e+02
Alpha Orbital Energies                     R   N=         123
 -9.67664067e-04 -4.32109976e-04 -1.49254589e-04 -1.12142840e-04 -4.48345768e-05
 -3.91340420e-05 -1.37693722e-05 -7.63046457e-06 -4.75559558e-06  1.51747819e-07
  3.66154344e-07  4.30968117e-07  7.14708977e-07  1.63263735e-06  2.22803054e-06
  2.89152740e-06  3.74596599e-06  4.36882733e-06  4.69770326e-06  5.56970152e-06
  6.45395285e-06  7.45704122e-06  9.24504001e-06  9.89715382e-06  1.18988945e-05
  1.20926413e-05  1.41465283e-05  1.47614533e-05  1.79694376e-05  2.14532608e-05
  3.02995479e-05  3.07686034e-05  3.09206763e-05  3.74323076e-05  3.82331115e-05
  4.27914934e-05  4.97919689e-05  5.01698016e-05  5.73672991e-05  6.04597340e-05
  6.31817523e-05  6.54115712e-05  7.32759025e-05  7.77806682e-05  9.05505260e-05
  1.08464283e-04  1.21051879e-04  1.42160217e-04  1.44309193e-04  1.48100037e-04
  1.51299061e-04  1.51831117e-04  1.67235058e-04  1.71695680e-04  1.84279789e-04
  2.00644454e-04  2.14350258e-04  2.18076304e-04  2.38374165e-04  2.45382181e-04
  2.72225575e-04  2.76560995e-04  3.07442448e-04  3.38984788e-04  3.87667626e-04
  4.65530022e-04  4.97946599e-04  5.35393691e-04  5.94952688e-04  6.34312164e-04
  6.42613296e-04  6.79070864e-04  6.82584220e-04  7.72083491e-04  7.76598370e-04
  8.10496390e-04  8.26567220e-04  8.62444938e-04  1.25684002e-03  1.50208385e-03
  2.25050368e-03  2.48484141e-03  2.56545651e-03  2.70397578e-03  2.80236953e-03
  3.01023354e-03  3.13522379e-03  3.67366374e-03  3.84222682e-03  3.85320309e-03
  3.92736685e-03  4.01963186e-03  4.10688197e-03  4.34896743e-03  4.47733517e-03
  6.15325604e-03  6.34747485e-03  6.98596105e-03  8.38992761e-03  8.40533456e-03
  8.70031218e-03  9.93347453e-03  9.96667717e-03  1.53849700e-02  1.57054780e-02
  1.81345951e-02  2.99025959e-02  9.68995233e-01  9.77132684e-01  9.77412400e-01
  9.79265496e-01  9.79649773e-01  9.82575216e-01  9.83365249e-01  9.83460875e-01
  9.83580139e-01  9.90480252e-01  9.91846049e-01  9.93009034e-01  9.99695746e-01
  9.99703683e-01  9.99853626e-01  9.99853639e-01
Alpha MO coefficients                      R   N=       15129
  2.62923945e-03  6.03233447e-03 -5.34414889e-02 -1.18932139e+00 -3.51844017e+00
  1.04169277e-01  2.14415449e-01 -1.61575778e-04  7.01850020e-02 -9.10979344e-01
 -1.83694594e-04 -4.02615902e-01  2.73904840e-02 -3.04795338e-03 -2.81200180e-02
 -3.43063321e-05 -6.37925924e-05 -1.05400734e-02  2.23293467e-03 -5.48298970e-01
  3.62941129e-04  1.08488621e-03 -2.50580617e-01  1.62902846e-02  2.03541338e-03
  1.25448505e-02 -4.21361810e-02  1.50365754e+00  2.35899505e+00 -6.05231027e-03
 -1.20429307e-02  3.79280382e-04  6.35285855e-01  1.56814669e+00  7.34641230e-04
  9.92085219e-01  2.03291480e+00  2.51607392e-03 -1.05377227e-03  1.25241278e-04
  2.64588967e-04  1.86298937e-03 -1.65704523e-02 -1.31702234e-01  1.02584660e-03
  2.66454682e-03 -2.43686281e-01  3.55316208e-01  6.24669464e-03  8.08546871e-01
 -2.40006643e-01  2.92106696e-02 -3.46330126e-02 -2.02038484e-05  3.05774929e-01
 -1.33532328e-01 -8.41297187e-05  5.10734954e-02 -2.44777093e-01  6.06373287e-01
 -3.10353157e-02  4.06321811e-02 -5.80476356e-03  2.33466588e-01  3.35385460e-01
 -1.49328709e-01  5.08676430e-02 -2.45210413e-01  6.03785317e-01 -3.09713741e-02
  4.05326479e-02  5.76423273e-03  2.33641060e-01  3.34802290e-01  1.48972372e-01
  3.52357792e-03  1.37276575e-02 -1.15108251e-01  3.26844848e-01 -5.75969933e-01
  1.12724058e-01  1.81960255e-01 -1.98050731e-04 -5.56649559e-01 -9.23330735e-01
  1.22375444e-03 -3.90447024e-01  4.13291867e-02  7.17769464e-06  8.83483491e-03
 -3.12668293e-05  1.31240563e-04 -2.23996875e-02 -4.08524661e-02  1.89206440e-01
  8.90444699e-04  4.58689478e-05 -1.91673191e-01 -1.49710478e-01  3.18713626e-03
  1.19170684e-02 -9.83150411e-02  2.81729812e-01 -3.54348488e-01  8.14777261e-02
  2.04169050e-01 -1.91975727e-04 -3.97346435e-01 -1.04462485e+00  1.22343941e-03
  2.66018074e-01 -1.37505238e-01 -1.37822418e-04  9.36509579e-03  9.25638565e-05
  3.83528004e-05  4.76282997e-02  1.31651166e-02  1.97210392e-01 -3.09197274e-04
  3.98262702e-04  1.66994745e-01  1.68984744e-01  3.83141717e-05 -3.39478956e-03
  3.45522503e-02 -1.55701401e-02 -1.38213014e-02  5.80843672e-03 -4.31610742e-03
 -1.51941715e-05  8.45871067e-01 -2.55680570e-01  1.53722896e-04  1.95843030e+00
 -1.14149209e+00 -1.83139762e-03 -2.97294238e-02 -1.40879670e-04  4.18838196e-05
 -5.77324645e-02 -5.94941897e-02  9.77126000e-02 -3.47080331e-04 -3.12149268e-04
 -2.42065561e-01  7.26024565e-02 -1.03698903e-04 -1.48181324e-03  1.35807248e-02
  3.91386904e-02 -6.72424917e-01  5.04072055e-02 -1.61167650e-02 -7.62486727e-05
 -5.24568127e-01  2.89293394e-01 -1.69140178e-04 -2.23055294e+00  9.32899102e-01
  1.02893153e-03 -1.13696851e-02  8.64076128e-06  3.49942297e-06 -2.49558586e-02
 -1.91447948e-02  4.22648766e-02  1.94072446e-03  3.55817669e-04 -1.06746777e+00
 -9.93239892e-01  5.78036095e-02  4.61889291e-02  1.06702112e+00  4.48216459e-02
  4.53595980e-02 -3.73600303e-05 -5.21716416e-02 -1.50610842e-01  1.62155174e-04
 -6.80973948e-03  1.13340602e-01 -3.79747808e-01 -8.63981242e-03 -6.77037631e-02
  1.11735840e-02  7.89401134e-02  6.92384311e-03 -1.19154287e-01 -6.61714892e-03
  1.10766807e-01 -3.78216163e-01 -8.65089118e-03 -6.75755274e-02 -1.12207387e-02
  7.99136886e-02  7.86671565e-03  1.19984051e-01 -9.40424330e-04 -2.17569933e-02
  1.23500018e-01 -2.20732591e-01  2.04498927e-01 -1.28490015e-01  2.03609353e-01
 -5.67599390e-04  4.77964199e-01 -9.80822754e-01  1.88537328e-03  2.96657215e-02
  6.29101538e-01 -1.81281564e-03 -9.49185073e-03  1.42954898e-05  5.39804144e-05
  1.98447155e-02 -2.57392205e-02 -1.71735289e-01 -4.76432972e-04  4.37544287e-04
  1.92842683e-01 -5.53564871e-02  1.14527650e-03  2.38661925e-02 -1.34411161e-01
  2.05876076e-01  8.36947123e-02 -2.34151691e-01 -2.60683453e-02  6.55382350e-04
  1.02837534e+00  2.36980094e-01 -2.20516348e-03 -4.54774328e-01 -3.23450011e-01
  2.07205694e-03  8.20585965e-03 -2.83741456e-05 -2.94035786e-05 -2.09426997e-02
  2.65815181e-02  1.41773327e-01 -5.05797628e-04 -1.84692370e-04 -3.49474612e-02
  2.44906033e-01  1.72650191e-05 -5.69620488e-05  2.39170750e-04 -1.49391629e-03
 -1.35122267e-03 -5.57628840e-05 -6.72554271e-05 -4.06218246e-02 -7.91414527e-03
  1.75708860e-03  1.04175235e+00 -2.68357973e-03 -3.59688896e-03 -3.23412611e-01
  3.37645312e-04 -5.69569289e-02 -1.35991624e-02  3.86435137e-04  5.42326345e-04
  6.86320769e-04 -1.99656426e-01 -1.10495564e-01 -3.35485856e-03 -1.78376630e-04
 -1.15068393e-06  4.39849112e-06  5.58663924e-05 -6.77026375e-03 -3.68553362e-03
  2.33954622e-04 -1.09722311e-04 -8.33465871e-02  1.07196309e-02 -4.79687728e-03
 -5.70836578e-01  2.15966881e-03 -8.43386980e-04 -4.89423103e-01 -3.28205892e-04
  2.24674160e-01 -9.03727552e-02  6.42275627e-04  3.18893477e-04 -3.86897931e-03
  1.80086141e+00 -6.25429538e-01  7.54434718e-03  5.35538707e-03  2.90093401e-04
 -6.83507559e-03  4.32280272e-03  7.72987877e-05 -7.90062367e-04  2.43673529e-02
 -3.32243599e-03  2.60370457e-03  3.88884669e-02 -6.61880601e-03  1.70240030e+00
 -3.68084172e-01  4.29683385e-02 -2.18020584e-02 -3.51378922e-02 -4.89532207e-01
 -2.81832825e-01  5.82169217e-01  6.50842537e-03 -1.69348578e+00  3.68470281e-01
 -4.22852605e-02  2.26362521e-02 -3.51585820e-02  4.88985923e-01  2.82481819e-01
  5.77109528e-01 -2.43228841e-05  1.31059827e-04 -1.09371263e-03  4.95371767e-03
  8.19703602e-03 -7.18505573e-04 -9.23665864e-04 -2.89040287e-01  6.27883329e-03
  5.39594092e-03  1.31954139e+00  2.04743556e-03  4.35645739e-04  9.41132174e-01
 -1.24933761e-04  4.79022364e-02 -6.29066109e-04  1.80714630e-04  2.09935712e-04
 -2.66760273e-03  4.80963278e-01  1.60529267e-01  4.58387016e-04  1.24810895e-03
  2.94397236e-05 -1.14891729e-04  7.38172331e-04 -3.13554662e-03 -6.06417996e-03
  5.92351602e-04  7.38904609e-04  1.54497774e-01 -3.18521971e-03 -5.35073602e-03
 -7.78574687e-01 -6.37612029e-04  6.13845982e-04 -2.69092464e-01  2.15910356e-05
 -1.78931781e-03 -6.62299636e-03  2.11771930e-04  2.26319950e-05  1.19142463e-03
  1.62977806e-02 -2.40186775e-01  7.16802657e-04 -1.52607248e-03  1.05123712e-04
 -3.21764891e-04  1.61042790e-03 -4.61705063e-03 -2.70167762e-02 -1.50760695e-04
 -4.18528790e-04 -1.20451005e-02  2.32534661e-03 -4.67282191e-03  3.09021364e-01
 -1.77069009e-03 -2.24641184e-03 -8.53565153e-01 -2.39948723e-05 -8.38507525e-02
 -1.04236596e-01 -3.23322219e-04 -1.84453125e-05 -3.20744988e-04 -2.71820596e-01
  5.39325548e-01 -5.98761404e-05  2.01953633e-03  2.85421422e-06 -1.96344851e-05
  1.84657996e-04 -2.15658320e-02  3.06911736e-02 -3.02056142e-04  4.22508115e-04
 -2.66791012e-01 -5.23868374e-03  2.88852059e-03 -1.44058442e+00  2.53435864e-03
  3.41403135e-03 -1.46399402e+00 -5.11131286e-04 -1.12275271e-02  1.41141875e-01
 -1.15163548e-04 -1.65336290e-04 -4.54352888e-03  8.47530967e-04  6.72184338e-01
 -5.26787340e-03 -4.08477328e-04  4.36705510e-04  5.14725937e-03  1.06966991e-03
  3.55056500e-04  8.53311091e-05 -3.24785793e-02  2.64491536e-03  7.85925045e-04
 -2.71115953e-01 -5.24594854e-02  3.08354502e-01 -1.29514671e+00  1.02400445e-01
  1.13171890e-01 -7.52155142e-03 -4.36340311e-01 -1.73085780e-01  3.09314471e-01
  5.37333456e-02 -3.12575437e-01  1.30064091e+00 -1.03168596e-01 -1.13244434e-01
 -7.82541544e-03  4.39326065e-01  1.77364833e-01  3.10347347e-01  1.10095249e-05
  3.06188342e-05 -6.53361954e-04  3.53600979e-03 -4.31784128e-03 -4.98535767e-04
  1.86044073e-04 -2.01108309e-01  4.70758307e-03 -1.93412750e-03  7.36206567e-01
  2.03975524e-04  2.79833166e-03  8.51335666e-01 -1.12970212e-04  9.67045255e-02
 -7.49773070e-03  2.21593259e-04 -1.43725072e-04 -2.29549767e-03  3.30675299e-01
 -7.30201186e-02  2.44003397e-03  7.63730834e-04  5.73435173e-06  6.46512678e-05
 -1.09485067e-03  5.43255261e-03  3.35820188e-03  2.07782799e-04 -9.26095417e-04
 -3.18523719e-01 -3.51005494e-03  7.72738589e-03  1.28926720e+00  1.95691655e-03
  6.36285866e-03  9.65015603e-01 -9.57422279e-06 -8.18991407e-02  7.22204448e-02
 -2.75107444e-05 -2.58601517e-04 -3.26486399e-03 -2.80514308e-01  4.29863376e-01
 -2.59674184e-03 -1.94813006e-03 -1.04415135e-03  2.78713872e-03 -1.22528346e-02
 -2.38880579e-01  3.23136258e-01 -8.13205850e-03  1.64116731e-02  1.16167377e-04
 -4.66779624e-01  2.17222460e-01 -2.68917842e-03  1.75381165e+00 -1.34994003e+00
  8.46115399e-03  4.88842756e-02  2.21422676e-04 -7.16255761e-05  1.95067830e-02
  3.80412891e-02 -4.19511074e-01 -2.12622679e-03 -5.10506906e-04 -1.60378042e+00
 -1.22628706e+00 -3.44944199e-03  8.93990001e-03 -4.17530095e-02 -6.27207884e-02
 -6.70671326e-01  1.97875520e-01 -9.36880745e-02 -1.44998050e-04 -1.34464414e+00
  8.94237987e-01 -8.04979759e-04 -3.40269495e+00  2.06585672e+00 -6.28014267e-03
 -1.02069878e-02 -5.77378822e-04  3.90791734e-04  8.12661939e-02  6.06337832e-02
 -5.60759886e-02 -4.16287238e-03 -3.71686543e-05 -1.11859219e+00 -8.25700977e-01
  1.14624102e-01 -3.84752542e+00 -1.89823459e+00 -2.94606045e-02 -7.71467131e-02
  4.77353244e-05 -1.61075431e+00  6.64769167e-01 -9.47793673e-04 -6.13741620e-02
  1.99334062e+00  1.10870862e+00  3.06549219e-02  5.03551460e-02  5.95297931e-03
 -6.49632098e-01  2.49123604e-01  5.95296541e-01 -6.16985320e-02  2.01480411e+00
  1.10531535e+00  3.06130784e-02  4.99978593e-02 -5.67087303e-03 -6.53342196e-01
  2.48722506e-01 -6.02683959e-01  1.03055429e-02 -1.69492917e-02 -2.19753378e-02
  1.75370034e-01 -1.24986115e+00 -1.67274653e-01 -8.11125342e-02  7.19629954e-04
  6.27124313e-01  2.54989324e-01 -3.21824319e-03 -1.20732203e+00 -1.70835804e+00
  2.07573779e-03 -3.33406251e-02 -1.65121933e-04 -8.23933176e-05  4.52981783e-02
  5.02056112e-02 -2.35374179e-02 -6.34226536e-04  1.48608413e-04 -2.13555997e-02
 -3.22378900e-01 -1.11015844e-02  1.91154364e-02  3.32807658e-04 -5.10212656e-02
  1.13988862e+00 -3.41192715e-02  1.71034622e-01 -7.94710818e-04  1.21559320e-01
 -6.38015132e-01  3.32771422e-03  2.50010051e-01  1.54979927e+00 -6.60177722e-04
  1.85900814e-02 -1.77192924e-04  1.60541063e-04  5.47531000e-02  4.23005408e-02
  1.37913117e-01  2.69704486e-04  1.02761416e-03 -2.27307766e-01 -4.97431362e-02
 -3.71935100e-03  1.24458512e-02 -1.08003345e-01  1.07798568e+00  4.37795818e+00
  3.69317632e-02  1.15038761e-01 -1.87571887e-04  1.30269768e-01 -5.80544670e-01
  2.17476675e-03  4.09359955e-02  1.26356962e+00 -4.87806933e-03 -1.89254126e-02
 -2.21009032e-04 -1.75466555e-04 -1.13273674e-02 -5.80475023e-03  4.78372227e-01
 -1.17551655e-03  2.58063905e-03  2.76839466e-01 -5.73358966e-02  1.29402675e-02
 -4.37514478e-02  3.31520202e-01 -1.33945044e+00 -4.81607511e+00 -6.30683316e-02
 -1.48563957e-01 -6.69732002e-05  4.23931896e-01  9.26160551e-01 -3.15373683e-03
 -5.14083654e-01 -2.23459102e+00 -4.37550992e-03  6.72604458e-04  4.62451591e-05
  1.18884830e-04 -5.79998401e-02  5.80745741e-02  1.96726692e-01  1.01996864e-03
  1.00256753e-03  4.14193851e-01 -3.61483497e-01  1.02834391e-03  5.40305349e-01
 -4.01504406e-01 -6.23398663e-02  6.61648121e-02 -1.80705937e-04  2.65314783e-01
  4.80808278e-02 -1.03090358e-03  8.34455779e-04 -1.11788979e+00 -3.59391750e-01
  4.82442534e-02  2.34185710e-02 -3.75051447e-02  3.87432575e-01  1.65419962e-01
 -1.80389174e-01  1.12472543e-03 -1.12352460e+00 -3.47672662e-01  4.76272247e-02
  2.27688743e-02  3.71935910e-02  3.92057819e-01  1.66042500e-01  1.83364325e-01
 -7.19794589e-03  1.02815129e-02  3.89879217e-02 -2.35771310e-01  1.86145467e+00
  1.18066167e-01 -6.72626553e-02 -4.94469168e-04 -3.49429647e-01  1.43524596e-01
  1.24590162e-03  1.32611859e+00 -3.28685992e-01  1.07362160e-03  2.85485804e-02
  2.34636946e-04 -1.25016652e-04 -4.01587551e-02  5.67075288e-02 -8.11585778e-02
  3.67318560e-04  5.27570742e-04  8.46710223e-02 -2.79462499e-01 -8.03717352e-03
  1.16577502e-02  4.22766822e-02 -2.72595993e-01  2.14233309e+00 -1.31272087e-01
  5.18550743e-02 -4.50322791e-04  3.45989083e-01 -2.05713069e-01  1.20624399e-03
 -1.20118980e+00  1.11031276e+00  1.73019887e-03  3.04289305e-02 -1.73435810e-04
  5.67890888e-05 -4.89883457e-02  5.23322176e-02 -7.72999886e-02 -5.82908935e-05
  9.26020289e-04  2.32991965e-01 -1.26125071e-01 -1.54510658e-02  3.91020523e-02
 -3.17118295e-01  2.58388733e+00  4.49476206e+00  7.25396046e-02  1.30128773e-01
  8.74462576e-06  1.94108833e-01  2.99825406e-01  4.66175024e-04  6.02899618e-01
  4.55516466e+00 -1.26166303e-02 -3.20319645e-02 -2.13824901e-04 -1.31076696e-04
 -1.04210830e-02  3.39954708e-02  3.74217325e-01  4.50128709e-03  6.68877779e-03
  9.32878323e-01 -6.49254332e-01 -3.33451254e-02  8.26194877e-02 -3.44938085e-01
  2.33349598e+00  4.67920606e+00 -2.72978560e-02 -6.07142114e-02  1.22763209e-04
  9.69866233e-01  9.81410907e-01  1.69353257e-03  5.50137393e-01 -2.25709787e+00
  1.95517018e-02  2.15465877e-02  1.71745955e-04  1.33027451e-04 -1.66886549e-02
  7.12893592e-03  4.64355998e-01  2.79476948e-03  6.63337695e-03  1.04639107e+00
  1.00624540e-01  2.36654718e-02 -1.01908755e+00 -1.54545323e+00 -1.73661540e-02
  7.31879049e-02 -1.04420853e-04  1.83801502e-01 -1.31857009e-01  5.44086387e-04
  5.59622486e-02 -2.31906381e+00 -1.25339084e+00  4.02809654e-02  4.07993382e-02
 -6.77008039e-02  3.86319308e-01  5.06332786e-02 -4.79878604e-01  5.63397018e-02
 -2.33735359e+00 -1.26664932e+00  4.03028879e-02  4.06467970e-02  6.76162708e-02
  3.89325399e-01  4.80178672e-02  4.84371859e-01  5.64823737e-04  1.81514570e-03
 -6.78107278e-02  3.96302830e-01 -1.31699160e+00 -3.55490828e-02 -8.49312673e-03
  8.80716905e-05  1.04116903e-01 -1.19688062e-01  2.34244020e-04 -9.69190854e-01
  1.96375132e-01  4.89865136e-04 -2.68321254e-02 -1.71667724e-04 -3.00658473e-05
  3.08448877e-02  3.19973082e-02  1.30902504e-01  1.01564606e-03 -6.70585552e-05
 -2.43964996e-01 -2.45924106e-01  2.09121646e-03 -1.47578356e-03 -5.52397499e-02
  3.78858346e-01 -1.27800820e+00  1.42072291e-02 -3.76672325e-02  9.71690753e-05
 -2.07720944e-01 -1.48413094e-01  2.85453709e-04  6.56635615e-03 -1.13291581e+00
  4.39178643e-04 -2.65135152e-02  7.44854316e-05 -1.29189534e-04 -4.36630249e-02
 -2.09167923e-02  1.53320053e-01 -5.01073696e-04  7.75505455e-04  4.25878528e-01
  1.60479576e-01  3.14424173e-06 -8.38226026e-06  4.89052857e-05 -1.24517114e-04
  6.99288496e-03  5.97136442e-05 -8.65697687e-05  1.11356024e-01  1.86123095e-03
 -2.45244416e-03  4.77808917e+00  1.50340632e-03 -6.26476587e-03  8.01666777e+00
 -3.67942394e-05  6.02369092e-02  2.91776139e-02 -1.32602651e-05 -2.52268268e-05
 -3.98031292e-03  2.09604991e+00  2.55867551e-01  1.63505343e-03  2.88830583e-03
  3.68410147e-05 -8.98405404e-05  5.82029274e-04 -4.54811286e-03 -1.54196948e-02
 -2.05091748e-05 -1.69138093e-05  1.18178713e-02 -1.20895907e-03 -3.50855942e-03
  2.01453809e-01  6.05733945e-03  9.26605737e-04 -9.75632793e-02 -8.29336283e-06
  3.29100839e-03  1.92291157e-02 -1.11289330e-04  4.94812806e-05  2.38424720e-03
  1.98274597e-01 -2.16522413e-01 -9.50340305e-04  2.31925960e-03 -1.10357478e-04
  4.10097221e-03  5.12700577e-03  8.49260108e-05 -7.98473257e-05 -1.58508051e-02
  6.18382017e-04 -5.80861142e-04 -6.85718077e-02 -6.57866058e-02  9.81931195e+00
  7.76951712e+00 -1.68980611e-01 -7.33081272e-02  2.37107944e-01 -1.21353752e+00
  1.08811578e-01  1.21789264e+00  6.60409860e-02 -9.82042390e+00 -7.77142758e+00
  1.69372729e-01  7.34138173e-02  2.36589981e-01  1.21411829e+00 -1.10426716e-01
  1.21774364e+00  7.72714771e-06 -1.99961529e-05  6.81148504e-05  3.24572749e-04
  1.65059036e-03  7.62096030e-05 -2.15852626e-05  7.02323425e-03 -7.44816735e-06
  8.32055030e-04  2.94959157e-02 -3.55903809e-03 -1.40187676e-04 -2.37991030e-01
 -3.19322539e-06  5.50320799e-03  9.93134776e-03  1.72143548e-05 -1.88559618e-05
  1.27897821e-04 -6.36225694e-02 -4.99353893e-02 -2.78186008e-04  3.23924945e-04
  1.14786448e-06 -6.66480568e-06  7.51936448e-05 -2.35550304e-04  3.08222622e-03
 -6.85647061e-05  2.48700960e-05  2.51148594e-03  6.36627254e-04  4.72500699e-04
 -1.61799246e-02 -1.59231032e-03  1.65976503e-04 -9.50477279e-01  4.25185937e-05
  3.56365358e-03  7.01566128e-03  5.54703359e-05  1.21438881e-05 -2.09216195e-04
  1.13123624e-02 -1.21012511e-01 -6.56951287e-04 -7.72431311e-06  7.65822959e-04
 -1.51438189e-03 -9.51400306e-03  4.59299969e-01  2.34946137e+00 -8.38755192e-02
  3.38414594e-02  1.37378408e-04 -5.34401605e+00  2.51181817e+00  6.46487701e-03
 -7.02125387e+00  2.67819414e+00  8.72750799e-03 -4.15138705e-02  1.12669488e-04
  1.25285681e-04 -4.00981158e-02 -6.57639885e-02 -1.89801035e+00  4.22018081e-04
 -2.27342294e-03 -1.48838796e+00 -1.99052587e+00  2.73611016e-03 -6.56586543e-03
  4.28881731e-02 -8.28431834e-01 -2.82849005e+00 -1.50062252e-02  1.77592890e-02
 -2.34676987e-05 -1.11233310e+00  2.53410222e-01 -1.02606146e-03 -3.77360429e-01
 -3.51426136e-01 -3.32189732e-03 -3.79995593e-03 -1.72633590e-04 -2.02385136e-05
  3.76015571e-02  4.84012986e-02  1.16626360e-01 -1.39700210e-03  4.71156324e-04
 -5.56268897e-01 -8.35465598e-01  4.75434449e-02 -1.52405440e+01 -1.05100047e+01
 -1.87856561e-01  2.97159447e-01 -2.41921091e-05 -3.03346707e+00  2.04430733e+00
  3.88157092e-03 -2.08488931e-02  7.51244166e+00  5.44316297e+00 -7.98384566e-02
 -6.34935749e-02  1.45700252e-01 -9.61553307e-01  1.24125554e-01  1.41693779e+00
 -2.09495661e-02  7.50055228e+00  5.44165547e+00 -7.96825664e-02 -6.35038525e-02
 -1.45172399e-01 -9.62436425e-01  1.27755084e-01 -1.41489488e+00  4.85514663e-03