Generated by Psi4
     FORCE                        DF-MP2                        SADLEJ
Number of atoms                            I                7
Charge                                     I               -1
Multiplicity                               I                1
Number of electrons                        I               32
Number of alpha electrons                  I               16
Number of beta electrons                   I               16
Number of basis functions                  I              123
Number of independent functions            I              123
Atomic numbers                             I   N=           7
           6           6           1           1           1           8
           8
Nuclear charges                            R   N=           7
  6.00000000e+00  6.00000000e+00  1.00000000e+00  1.00000000e+00  1.00000000e+00
  8.00000000e+00  8.00000000e+00
Current cartesian coordinates              R   N=          21
  1.15867816e+00  2.45063006e+00 -2.66196663e-03 -1.02987740e-01 -1.92237859e-01
 -2.05708883e-03 -2.55552389e-01  3.95847702e+00 -1.76976173e-03  2.37272076e+00
  2.63150223e+00 -1.67090613e+00  2.37470113e+00  2.63139274e+00  1.66415784e+00
 -2.50223939e+00 -2.33337271e-01  3.02789468e-03  1.42719123e+00 -2.04202567e+00
  1.04923640e-03
Integer atomic weights                     I   N=           7
          12          12           1           1           1          15
          15
Real atomic weights                        R   N=           7
  1.20000000e+01  1.20000000e+01  1.00782503e+00  1.00782503e+00  1.00782503e+00
  1.59949146e+01  1.59949146e+01
Number of primitive shells                 I              110
Number of contracted shells                I               55
Pure/Cartesian d shells                    I                0
Pure/Cartesian f shells                    I                0
Highest angular momentum                   I                2
Largest degree of contraction              I                5
Shell types                                I   N=          55
           0           0           0           0           0           1
           1           1          -2          -2           0           0
           0           0           0           1           1           1
          -2          -2           0           0           0           1
           1           0           0           0           1           1
           0           0           0           1           1           0
           0           0           0           0           1           1
           1          -2          -2           0           0           0
           0           0           1           1           1          -2
          -2
Number of primitives per shell             I   N=          55
           5           2           1           1           1           4
           1           1           2           2           5           2
           1           1           1           4           1           1
           2           2           4           1           1           2
           2           4           1           1           2           2
           4           1           1           2           2           5
           2           1           1           1           4           1
           1           2           2           5           2           1
           1           1           4           1           1           2
           2
Shell to atom map                          I   N=          55
           1           1           1           1           1           1
           1           1           1           1           2           2
           2           2           2           2           2           2
           2           2           3           3           3           3
           3           4           4           4           4           4
           5           5           5           5           5           6
           6           6           6           6           6           6
           6           6           6           7           7           7
           7           7           7           7           7           7
           7
Primitive exponents                        R   N=         110
  5.24063530e+03  7.82204800e+02  1.78350830e+02  5.08159420e+01  1.68235620e+01
  6.17577600e+00  2.41804900e+00  5.11900000e-01  1.56590000e-01  4.79000000e-02
  1.88418000e+01  4.15924000e+00  1.20671000e+00  3.85540000e-01  1.21940000e-01
  3.85680000e-02  1.20670000e+00  3.85500000e-01  1.21900000e-01  3.86000000e-02
  5.24063530e+03  7.82204800e+02  1.78350830e+02  5.08159420e+01  1.68235620e+01
  6.17577600e+00  2.41804900e+00  5.11900000e-01  1.56590000e-01  4.79000000e-02
  1.88418000e+01  4.15924000e+00  1.20671000e+00  3.85540000e-01  1.21940000e-01
  3.85680000e-02  1.20670000e+00  3.85500000e-01  1.21900000e-01  3.86000000e-02
  3.38650140e+01  5.09478800e+00  1.15878600e+00  3.25840000e-01  1.02741000e-01
  3.24000000e-02  1.15880000e+00  3.25800000e-01  1.02700000e-01  3.24000000e-02
  3.38650140e+01  5.09478800e+00  1.15878600e+00  3.25840000e-01  1.02741000e-01
  3.24000000e-02  1.15880000e+00  3.25800000e-01  1.02700000e-01  3.24000000e-02
  3.38650140e+01  5.09478800e+00  1.15878600e+00  3.25840000e-01  1.02741000e-01
  3.24000000e-02  1.15880000e+00  3.25800000e-01  1.02700000e-01  3.24000000e-02
  1.06622850e+04  1.59970970e+03  3.64725260e+02  1.03651790e+02  3.39058050e+01
  1.22874690e+01  4.75680500e+00  1.00427100e+00  3.00686000e-01  9.00300000e-02
  3.48564630e+01  7.84313100e+00  2.30624900e+00  7.23164000e-01  2.14882000e-01
  6.38500000e-02  2.30620000e+00  7.23200000e-01  2.14900000e-01  6.39000000e-02
  1.06622850e+04  1.59970970e+03  3.64725260e+02  1.03651790e+02  3.39058050e+01
  1.22874690e+01  4.75680500e+00  1.00427100e+00  3.00686000e-01  9.00300000e-02
  3.48564630e+01  7.84313100e+00  2.30624900e+00  7.23164000e-01  2.14882000e-01
  6.38500000e-02  2.30620000e+00  7.23200000e-01  2.14900000e-01  6.39000000e-02
Contraction coefficients                   R   N=         110
  2.06539993e-03  1.59324554e-02  8.01119476e-02  2.87877514e-01  7.03009673e-01
  6.94067370e-01  3.40077856e-01  1.00000000e+00  1.00000000e+00  1.00000000e+00
  1.80615059e-02  1.12214925e-01  3.75541979e-01  6.49536597e-01  1.00000000e+00
  1.00000000e+00  2.67978866e-01  8.19993920e-01  4.83796365e-01  6.39336711e-01
  2.06539993e-03  1.59324554e-02  8.01119476e-02  2.87877514e-01  7.03009673e-01
  6.94067370e-01  3.40077856e-01  1.00000000e+00  1.00000000e+00  1.00000000e+00
  1.80615059e-02  1.12214925e-01  3.75541979e-01  6.49536597e-01  1.00000000e+00
  1.00000000e+00  2.67978866e-01  8.19993920e-01  4.83796365e-01  6.39336711e-01
  8.76044950e-03  6.54232910e-02  2.92851374e-01  7.27211150e-01  1.00000000e+00
  1.00000000e+00  1.86447366e-01  8.73088966e-01  9.76214574e-01  3.48056130e-02
  8.76044950e-03  6.54232910e-02  2.92851374e-01  7.27211150e-01  1.00000000e+00
  1.00000000e+00  1.86447366e-01  8.73088966e-01  9.76214574e-01  3.48056130e-02
  8.76044950e-03  6.54232910e-02  2.92851374e-01  7.27211150e-01  1.00000000e+00
  1.00000000e+00  1.86447366e-01  8.73088966e-01  9.76214574e-01  3.48056130e-02
  1.90604745e-03  1.46782352e-02  7.43263084e-02  2.75759025e-01  7.19364732e-01
  6.69996511e-01  3.66229217e-01  1.00000000e+00  1.00000000e+00  1.00000000e+00
  1.99439284e-02  1.25155543e-01  3.92261182e-01  6.27670401e-01  1.00000000e+00
  1.00000000e+00  2.83613619e-01  8.10264660e-01  6.73833443e-01  4.58004278e-01
  1.90604745e-03  1.46782352e-02  7.43263084e-02  2.75759025e-01  7.19364732e-01
  6.69996511e-01  3.66229217e-01  1.00000000e+00  1.00000000e+00  1.00000000e+00
  1.99439284e-02  1.25155543e-01  3.92261182e-01  6.27670401e-01  1.00000000e+00
  1.00000000e+00  2.83613619e-01  8.10264660e-01  6.73833443e-01  4.58004278e-01
Coordinates of each shell                  R   N=         165
  1.15867816e+00  2.45063006e+00 -2.66196663e-03  1.15867816e+00  2.45063006e+00
 -2.66196663e-03  1.15867816e+00  2.45063006e+00 -2.66196663e-03  1.15867816e+00
  2.45063006e+00 -2.66196663e-03  1.15867816e+00  2.45063006e+00 -2.66196663e-03
  1.15867816e+00  2.45063006e+00 -2.66196663e-03  1.15867816e+00  2.45063006e+00
 -2.66196663e-03  1.15867816e+00  2.45063006e+00 -2.66196663e-03  1.15867816e+00
  2.45063006e+00 -2.66196663e-03  1.15867816e+00  2.45063006e+00 -2.66196663e-03
 -1.02987740e-01 -1.92237859e-01 -2.05708883e-03 -1.02987740e-01 -1.92237859e-01
 -2.05708883e-03 -1.02987740e-01 -1.92237859e-01 -2.05708883e-03 -1.02987740e-01
 -1.92237859e-01 -2.05708883e-03 -1.02987740e-01 -1.92237859e-01 -2.05708883e-03
 -1.02987740e-01 -1.92237859e-01 -2.05708883e-03 -1.02987740e-01 -1.92237859e-01
 -2.05708883e-03 -1.02987740e-01 -1.92237859e-01 -2.05708883e-03 -1.02987740e-01
 -1.92237859e-01 -2.05708883e-03 -1.02987740e-01 -1.92237859e-01 -2.05708883e-03
 -2.55552389e-01  3.95847702e+00 -1.76976173e-03 -2.55552389e-01  3.95847702e+00
 -1.76976173e-03 -2.55552389e-01  3.95847702e+00 -1.76976173e-03 -2.55552389e-01
  3.95847702e+00 -1.76976173e-03 -2.55552389e-01  3.95847702e+00 -1.76976173e-03
  2.37272076e+00  2.63150223e+00 -1.67090613e+00  2.37272076e+00  2.63150223e+00
 -1.67090613e+00  2.37272076e+00  2.63150223e+00 -1.67090613e+00  2.37272076e+00
  2.63150223e+00 -1.67090613e+00  2.37272076e+00  2.63150223e+00 -1.67090613e+00
  2.37470113e+00  2.63139274e+00  1.66415784e+00  2.37470113e+00  2.63139274e+00
  1.66415784e+00  2.37470113e+00  2.63139274e+00  1.66415784e+00  2.37470113e+00
  2.63139274e+00  1.66415784e+00  2.37470113e+00  2.63139274e+00  1.66415784e+00
 -2.50223939e+00 -2.33337271e-01  3.02789468e-03 -2.50223939e+00 -2.33337271e-01
  3.02789468e-03 -2.50223939e+00 -2.33337271e-01  3.02789468e-03 -2.50223939e+00
 -2.33337271e-01  3.02789468e-03 -2.50223939e+00 -2.33337271e-01  3.02789468e-03
 -2.50223939e+00 -2.33337271e-01  3.02789468e-03 -2.50223939e+00 -2.33337271e-01
  3.02789468e-03 -2.50223939e+00 -2.33337271e-01  3.02789468e-03 -2.50223939e+00
 -2.33337271e-01  3.02789468e-03 -2.50223939e+00 -2.33337271e-01  3.02789468e-03
  1.42719123e+00 -2.04202567e+00  1.04923640e-03  1.42719123e+00 -2.04202567e+00
  1.04923640e-03  1.42719123e+00 -2.04202567e+00  1.04923640e-03  1.42719123e+00
 -2.04202567e+00  1.04923640e-03  1.42719123e+00 -2.04202567e+00  1.04923640e-03
  1.42719123e+00 -2.04202567e+00  1.04923640e-03  1.42719123e+00 -2.04202567e+00
  1.04923640e-03  1.42719123e+00 -2.04202567e+00  1.04923640e-03  1.42719123e+00
 -2.04202567e+00  1.04923640e-03  1.42719123e+00 -2.04202567e+00  1.04923640e-03
Total Energy                               R     -2.273058093739094e+02
Alpha Orbital Energies                     R   N=         123
 -9.65276797e-04 -4.27383262e-04 -1.49009722e-04 -1.13087233e-04 -4.60383827e-05
 -3.89995065e-05 -1.35751147e-05 -7.45395114e-06 -4.61115159e-06  1.51344551e-07
  3.60717322e-07  4.30974052e-07  7.11236209e-07  1.62180922e-06  2.23895081e-06
  2.90140178e-06  3.73440319e-06  4.35991992e-06  4.67290023e-06  5.53909057e-06
  6.41903374e-06  7.44385840e-06  9.23291443e-06  9.86526405e-06  1.17824607e-05
  1.20104713e-05  1.40931710e-05  1.46941745e-05  1.77844107e-05  2.12878131e-05
  3.00888976e-05  3.07106861e-05  3.09591688e-05  3.73160732e-05  3.80457904e-05
  4.27681917e-05  4.99408525e-05  5.01906128e-05  5.73694335e-05  6.03299554e-05
  6.32151684e-05  6.51217835e-05  7.30456693e-05  7.77164959e-05  9.03960307e-05
  1.08446916e-04  1.20973897e-04  1.42293817e-04  1.44381884e-04  1.48045660e-04
  1.51177913e-04  1.52068710e-04  1.67322786e-04  1.71601033e-04  1.84257609e-04
  2.00918083e-04  2.14926621e-04  2.17857544e-04  2.38954316e-04  2.45593134e-04
  2.72219456e-04  2.76743044e-04  3.07127825e-04  3.38813799e-04  3.87488131e-04
  4.65169550e-04  4.97594602e-04  5.35784149e-04  5.94252427e-04  6.32428996e-04
  6.41943257e-04  6.78562533e-04  6.81691692e-04  7.71831527e-04  7.76892601e-04
  8.10400046e-04  8.26579332e-04  8.61856843e-04  1.25717292e-03  1.50159220e-03
  2.25086284e-03  2.48654904e-03  2.56234514e-03  2.70482313e-03  2.80332416e-03
  3.01214639e-03  3.13456914e-03  3.67481083e-03  3.84861554e-03  3.85211589e-03
  3.92841193e-03  4.01827307e-03  4.10996954e-03  4.34504781e-03  4.47629857e-03
  6.15526126e-03  6.36021974e-03  6.98692071e-03  8.38143328e-03  8.40002439e-03
  8.71656082e-03  9.91484764e-03  9.97043283e-03  1.53725313e-02  1.56878257e-02
  1.81281486e-02  2.98472339e-02  9.69032837e-01  9.77136911e-01  9.77415164e-01
  9.79277230e-01  9.79641596e-01  9.82577830e-01  9.83373932e-01  9.83475797e-01
  9.83587939e-01  9.90482005e-01  9.91845950e-01  9.93008449e-01  9.99695736e-01
  9.99703686e-01  9.99853624e-01  9.99853629e-01
Alpha MO coefficients                      R   N=       15129
  2.66732044e-03  6.64828083e-03 -5.90802449e-02 -1.15262696e+00 -3.53174177e+00
  1.03199721e-01  2.11256564e-01  9.53297755e-04  6.98668462e-02 -8.88839378e-01
 -1.55258822e-02 -4.24210476e-01  5.81599025e-02 -1.15466535e-02 -2.86035891e-02
 -3.13735354e-04 -3.11018265e-04 -1.08071742e-02  2.83339986e-03 -5.40479917e-01
 -1.39595871e-04  7.06298413e-03 -2.36234796e-01  8.78556990e-03  1.97432423e-03
  1.27084023e-02 -4.03978992e-02  1.50542058e+00  2.43962480e+00 -5.73066416e-03
 -1.10079669e-02 -2.00886018e-03  6.39050685e-01  1.57164703e+00 -3.00262003e-04
  1.03224605e+00  2.07640612e+00 -1.65473376e-02  1.68111671e-04  2.29703672e-04
  3.60433936e-04  2.80838085e-03 -1.72017618e-02 -1.25795046e-01  1.04246253e-02
  2.00897923e-02 -2.15980442e-01  3.51643880e-01  3.66817778e-03  8.02551205e-01
 -3.05525319e-01  2.79580901e-02 -3.31759914e-02  4.25478482e-05  3.08435984e-01
 -1.30235479e-01 -3.41009698e-05  4.81577230e-02 -2.57470813e-01  5.62786856e-01
 -2.96733596e-02  4.04305658e-02 -6.67106289e-03  2.35202861e-01  3.40166484e-01
 -1.53904548e-01  5.06082696e-02 -2.53127030e-01  6.14239552e-01 -3.07755425e-02
  4.01477749e-02  6.73935332e-03  2.37369243e-01  3.38734778e-01  1.47902241e-01
  3.59384894e-03  1.42328590e-02 -1.17771858e-01  3.27484553e-01 -5.77430414e-01
  1.13400107e-01  1.82806488e-01 -2.06870293e-03 -5.56777031e-01 -9.25663096e-01
  7.69990559e-03 -3.93751661e-01  2.88832174e-02  1.24396032e-02  8.94817636e-03
  2.11699658e-04  5.56617806e-06 -2.22775321e-02 -4.07677931e-02  1.87017519e-01
  3.28449466e-03 -2.43494435e-03 -1.94641391e-01 -1.50492050e-01  3.28102646e-03
  1.25453134e-02 -1.01938271e-01  2.85888989e-01 -3.36680744e-01  8.22498740e-02
  2.05944687e-01 -2.02023533e-03 -4.04118398e-01 -1.05031746e+00  7.38723977e-03
  2.54722641e-01 -1.45948325e-01  1.06736843e-02  9.30707699e-03 -1.61627385e-04
  1.51873513e-04  4.73964791e-02  1.30234400e-02  1.95827810e-01 -3.57206577e-03
  5.79607221e-04  1.68058156e-01  1.71086247e-01 -4.50529393e-05  3.25284444e-03
 -3.32395308e-02  1.41579982e-02  4.39012952e-04 -5.76336724e-03  3.21022465e-03
 -5.51468637e-04 -8.52587940e-01  2.56399234e-01  1.32002260e-02 -2.00958416e+00
  1.14099637e+00  1.38160069e-03  2.96060649e-02 -8.39531159e-04  2.37336274e-04
  5.79673082e-02  5.97966145e-02 -1.03751146e-01  6.67685597e-03 -4.94777276e-03
  2.59841312e-01 -5.50301747e-02  1.41540398e-04  1.48511408e-03 -1.59514809e-02
 -4.63724429e-02  6.75576990e-01 -5.09110398e-02  1.74296372e-02 -6.19321446e-04
  5.30086309e-01 -3.00229620e-01 -4.07153824e-03  2.24903084e+00 -9.52652377e-01
 -6.53140707e-03  1.09729676e-02  3.34177566e-03 -1.78333474e-03  2.62274010e-02
  1.85894153e-02 -4.97229463e-02  2.96792424e-02 -1.56138586e-02  1.09123319e+00
  9.95326402e-01 -5.82283340e-02 -3.08498886e-02 -1.05698176e+00 -4.30015169e-02
 -4.42259577e-02  2.50748584e-04  5.49750877e-02  1.44071324e-01  6.18043319e-03
  8.37745448e-03 -9.08894442e-02  3.92994833e-01  8.71624318e-03  6.59217845e-02
 -1.13394559e-02 -8.34586698e-02 -5.68557083e-03  1.18824149e-01  6.34411059e-03
 -1.32952941e-01  3.91294306e-01  8.28897269e-03  6.78523029e-02  1.07798548e-02
 -8.05449670e-02 -2.86776792e-03 -1.10951489e-01  8.98543900e-04  2.12922333e-02
 -1.20939860e-01  2.15688019e-01 -2.29510861e-01  1.26789090e-01 -2.03282388e-01
 -4.88262079e-03 -4.73934807e-01  9.79919790e-01  2.05211552e-02 -1.75922631e-02
 -6.46429959e-01  1.96824709e-02  9.50313939e-03  3.06989945e-04  2.22205354e-04
 -1.99924513e-02  2.58895087e-02  1.70623230e-01  8.51954087e-03  2.80817969e-03
 -1.88815741e-01  5.26199271e-02 -1.07608678e-03 -2.43004336e-02  1.36015222e-01
 -2.08382115e-01 -1.00262887e-01  2.35539708e-01  2.53171263e-02  4.09937856e-03
 -1.03599749e+00 -2.35883095e-01 -1.80486482e-02  4.71027308e-01  3.28737987e-01
 -1.44410657e-02 -8.29734249e-03 -7.70658165e-05 -2.52210640e-04  2.08565639e-02
 -2.68023576e-02 -1.42742441e-01  2.56470566e-03 -6.55220688e-03  3.19511644e-02
 -2.45279752e-01  6.04641480e-06 -1.56736303e-05 -7.52230649e-05  2.10142575e-03
  2.37561479e-02  1.20241411e-04  7.89553164e-04  3.90733518e-02 -9.72418141e-03
  2.64033139e-03 -1.02064277e+00  7.78688888e-02 -3.99559309e-02  3.08101929e-01
  1.13842110e-03  5.44682617e-02  1.05960630e-02  1.67148528e-03  2.38782108e-03
  1.63565592e-03  2.30059112e-01  1.22930414e-01 -3.11637538e-02 -2.51423737e-02
 -1.88888271e-05  1.11702031e-04 -9.18173913e-04  9.01602071e-03 -5.46910908e-03
  1.47066886e-03 -9.27572066e-04  7.44114404e-02 -2.23583251e-02  1.12294348e-02
  5.44789138e-01 -1.60778930e-01  7.98896262e-02  4.68179481e-01 -1.25696138e-04
 -2.25871593e-01  9.39164480e-02  2.94902278e-03  1.89636236e-03  3.07303909e-03
 -1.82022000e+00  6.50189623e-01  6.47055572e-03  6.45010006e-03  2.06523653e-03
 -4.35761787e-02  1.02759680e-02 -2.61445704e-03 -3.74504041e-03 -2.32319925e-02
 -1.46741018e-02  1.26190082e-02 -3.65971350e-02  7.05129386e-03 -1.64023816e+00
  3.78844396e-01 -3.81675129e-02  2.69803868e-02  3.27640676e-02  4.75119043e-01
  2.80663292e-01 -5.45904065e-01 -8.75724322e-03  1.66489462e+00 -3.90584355e-01
  4.04282514e-02 -2.21877091e-02  3.52827217e-02 -4.86646567e-01 -2.80972706e-01
 -5.69011998e-01 -6.22333041e-05  4.96817980e-04 -2.67376821e-03 -1.65567431e-03
 -1.47365269e-02  3.21188802e-04 -4.80980019e-03  2.82986443e-01 -6.94834145e-03
  2.14471145e-02 -1.30277796e+00  6.08972833e-02 -5.92683862e-02 -9.27341323e-01
  8.77119126e-04 -4.52627359e-02 -1.93749709e-04 -3.83971395e-04  1.40221337e-03
 -5.14110889e-03 -4.74484156e-01 -1.59650452e-01 -7.52226366e-04 -7.69532446e-03
  3.77069447e-05 -4.14649491e-04  2.31247123e-03  1.98081196e-03  1.04977703e-03
  4.20442383e-03  3.43642097e-03 -1.65225899e-01 -1.94321164e-02 -1.42837123e-02
  8.22333185e-01  8.39306504e-02 -1.83921942e-02  2.85148113e-01 -6.73658275e-04
 -5.55915152e-04  9.18879178e-03  1.71694396e-03 -4.23637728e-04  7.45295495e-03
 -2.27272552e-02  2.49101590e-01 -6.19020764e-03  1.93048959e-03  7.05453892e-05
 -2.73165654e-04  3.25275115e-03 -3.22784748e-02 -5.22921153e-02 -9.93125945e-04
 -4.10477556e-04 -1.40550627e-02  2.96760699e-02  4.76692914e-02  3.36724623e-01
  5.03387615e-02  3.94674413e-02 -8.16395529e-01  6.61978267e-04 -8.40304776e-02
 -1.04654657e-01  5.12761058e-04  2.82744546e-04  2.18292309e-02 -2.59916056e-01
  5.00359891e-01 -1.86710168e-03 -1.94695077e-02 -2.84391545e-04  6.84336254e-04
 -4.55893036e-03  5.28135347e-02  9.94734301e-02  6.63069722e-04 -1.05941122e-03
 -2.70387397e-01  1.55034400e-03  3.86225510e-02 -1.46648866e+00 -5.79524376e-02
  2.67598841e-02 -1.50076649e+00 -2.14305511e-04 -4.90727873e-03  1.37457254e-01
 -4.65547237e-04  2.19083249e-03 -1.80738902e-02  5.13337156e-02  6.59674082e-01
 -1.16047457e-02  4.81310235e-04  5.34570066e-04 -6.44611968e-03 -2.52616909e-02
 -1.92445849e-03 -9.29975736e-04 -2.99954149e-02 -7.82279257e-03 -3.31629918e-03
 -2.56284114e-01 -5.11958079e-02  3.48083115e-01 -1.27053456e+00  1.03260532e-01
  1.08159789e-01 -8.50607529e-03 -4.41847458e-01 -1.95184001e-01  3.20039395e-01
  4.82122159e-02 -3.55360624e-01  1.24073969e+00 -1.03199233e-01 -1.10688250e-01
 -9.34514130e-03  4.42107569e-01  1.83088295e-01  3.19104733e-01  1.70167267e-04
 -5.14387696e-04  2.06316702e-03 -7.01047749e-03  5.63553689e-03 -1.18914224e-03
 -3.17999303e-03 -2.10307146e-01  3.18318746e-03  1.13458577e-02  7.77913978e-01
  1.47013779e-02 -2.29986173e-02  8.80710239e-01 -7.46062895e-04  9.79243894e-02
 -7.18280893e-03  3.33185542e-04  1.61937575e-03  2.44959460e-04  3.45999525e-01
 -7.09496064e-02  2.27204343e-03 -5.15637491e-03  1.21389115e-04 -4.92428797e-04
  2.65409070e-03 -6.23465247e-03  2.16467266e-02 -1.21352977e-03 -7.07582417e-04
 -3.14456290e-01  3.74561017e-03  3.84194072e-03  1.27048720e+00  1.91007086e-02
  2.79400818e-04  9.46134830e-01 -7.92464819e-04 -8.14869420e-02  7.27682744e-02
 -9.25371639e-04  7.35991907e-05  4.57156467e-03 -2.82401221e-01  4.16426955e-01
 -1.80299850e-04 -2.64926908e-04 -1.03945598e-03  2.84140405e-03 -1.27944267e-02
 -2.25905227e-01  3.79532571e-01 -8.05594287e-03  1.81480397e-02 -9.36013255e-04
 -4.38360675e-01  1.94826112e-01  3.44624202e-02  1.64223063e+00 -1.29983130e+00
 -2.60579295e-02  4.84781712e-02  6.07550025e-05  2.79447136e-04  2.06084435e-02
  3.79144486e-02 -4.05130897e-01  1.31826628e-02 -7.66397430e-03 -1.53873691e+00
 -1.17319450e+00 -2.75223364e-03  6.78128270e-03 -2.90211143e-02 -1.03680453e-01
 -7.81076230e-01  1.98293501e-01 -9.84234756e-02  2.52361753e-04 -1.27009927e+00
  8.73498179e-01 -8.33943745e-04 -3.32252624e+00  1.97669842e+00  1.60411609e-02
 -1.00460904e-02  2.56428062e-03 -2.59252131e-03  7.97701516e-02  6.19544101e-02
 -5.96361922e-02  3.68774775e-02 -1.23036607e-02 -1.04220456e+00 -7.75752890e-01
  1.10727210e-01 -3.65605108e+00 -1.87076393e+00 -2.89526103e-02 -7.48396341e-02
 -7.09824820e-04 -1.54976228e+00  6.32076972e-01  1.71927778e-02 -5.99575951e-02
  1.97296724e+00  1.09308144e+00  3.08371766e-02  4.82677649e-02  3.00063113e-03
 -6.34345320e-01  2.44663290e-01  5.95310241e-01 -6.18794044e-02  1.82540605e+00
  1.09427561e+00  3.22972273e-02  5.11153812e-02 -4.82792048e-03 -6.16753564e-01
  2.56958549e-01 -5.44007812e-01  9.99855597e-03 -1.64662068e-02 -2.16030224e-02
  1.68571065e-01 -1.18290730e+00 -1.64380895e-01 -8.31463753e-02 -1.60535316e-03
  6.24384790e-01  2.69302623e-01  1.13185949e-02 -1.11877242e+00 -1.69873413e+00
  2.87820012e-02 -3.20902160e-02 -3.86904952e-04 -5.33143684e-04  4.34615212e-02
  5.15521341e-02 -3.23811582e-02  6.95361150e-03  5.09081926e-03 -9.13123543e-03
 -3.24904805e-01 -1.13362638e-02  1.95073718e-02  2.79845374e-03 -6.70141048e-02
  1.15931798e+00 -3.88495041e-02  1.74586351e-01  3.21888978e-03  1.37974086e-01
 -6.63402181e-01 -1.65224658e-02  2.30185268e-01  1.55814004e+00 -2.32547796e-02
  2.00443053e-02  7.07851962e-04 -2.17635305e-04  5.38980814e-02  4.38796089e-02
  1.37482650e-01  1.32235455e-03 -7.40352539e-03 -2.22068598e-01 -4.74446762e-02
  3.67537626e-03 -1.22613417e-02  1.04919036e-01 -1.04920683e+00 -4.32266758e+00
 -3.74140506e-02 -1.12352302e-01  1.89572211e-04 -1.65651283e-01  5.46798372e-01
 -9.46566729e-03 -1.11666555e-02 -1.24865345e+00 -1.56562777e-02  1.91168692e-02
 -2.86198705e-04 -3.42145229e-04  1.06614551e-02  6.82196929e-03 -4.91823344e-01
 -7.52891198e-03  1.92990380e-04 -3.15585693e-01  3.31082926e-02 -1.32315875e-02
  4.44946494e-02 -3.32295185e-01  1.32963551e+00  4.81119441e+00  6.88531490e-02
  1.44867137e-01 -1.58034144e-03 -4.54668248e-01 -9.39808067e-01 -1.29659646e-02
  4.17866121e-01  2.27313660e+00 -2.25018686e-02 -1.52938982e-04  2.11562784e-04
  8.64863036e-04  5.86537988e-02 -5.67692655e-02 -1.82035422e-01  1.05897576e-02
  1.41174871e-02 -4.39557440e-01  3.26118375e-01  3.59589494e-03 -6.40346693e-01
  3.15320486e-01  6.06351601e-02 -6.46933019e-02  4.01264327e-04 -2.97486402e-01
 -3.64287505e-02 -2.00457502e-03 -3.47938454e-03  1.17364790e+00  3.48125563e-01
 -4.61083033e-02 -2.12545069e-02  3.85891836e-02 -4.03799358e-01 -1.64750320e-01
  1.92415113e-01 -1.00171390e-03  1.19623097e+00  4.14025532e-01 -4.80769865e-02
 -2.17947971e-02 -3.75411385e-02 -3.98682481e-01 -1.58473704e-01 -2.01323943e-01
  7.58425492e-03 -1.09156279e-02 -4.05377277e-02  2.52505252e-01 -1.91413415e+00
 -1.23445481e-01  6.56215504e-02 -7.07873332e-04  3.72743940e-01 -1.38420143e-01
  5.25762079e-03 -1.38117941e+00  2.88101583e-01  2.09506418e-02 -2.96049224e-02
  1.20900350e-05  5.06662062e-04  4.24548327e-02 -5.53545705e-02  8.11845322e-02
  5.19132997e-03 -3.86894463e-03 -8.95486937e-02  2.72324138e-01  7.85005035e-03
 -1.14326460e-02 -4.10691084e-02  2.66933133e-01 -2.12984097e+00  1.28923484e-01
 -4.85384081e-02 -1.12782120e-03 -3.35571547e-01  1.91924142e-01  6.05527741e-03
  1.21556796e+00 -1.09423424e+00  1.48956057e-02 -3.00079673e-02  2.05575740e-04
  2.92056464e-04  4.88773430e-02 -5.15825366e-02  8.16778193e-02 -5.47035044e-03
  1.76996223e-03 -2.32051668e-01  1.30166652e-01  1.60280428e-02 -4.04577687e-02
  3.26526635e-01 -2.66095426e+00 -4.51417085e+00 -7.33960841e-02 -1.30928489e-01
 -2.30929636e-03 -1.36537192e-01 -3.09087281e-01 -9.08554203e-02 -7.00758496e-01
 -4.52073129e+00 -8.32311976e-02  3.25892104e-02 -1.20072127e-03 -5.31679730e-04
  1.13190026e-02 -3.42166719e-02 -3.55334067e-01 -3.16527535e-02 -2.86242778e-02
 -9.09892077e-01  6.73465825e-01  3.31506965e-02 -8.18867170e-02  3.36926671e-01
 -2.25604102e+00 -4.54537958e+00  2.70073864e-02  6.35071057e-02 -3.28305104e-05
 -9.46027509e-01 -9.88362404e-01 -1.09455073e-02 -5.00803987e-01  2.14462525e+00
 -2.95114851e-02 -2.21503478e-02 -4.22559087e-04 -5.82407326e-04  1.53709353e-02
 -6.46953954e-03 -4.73498803e-01 -1.24655207e-02 -1.80488272e-03 -1.03156325e+00
 -7.71571743e-02 -2.32889035e-02  1.21323375e+00  1.52529465e+00  1.88337168e-02
 -7.57088659e-02  9.86459381e-04 -1.28374245e-01  8.71438404e-02  6.14632479e-03
 -5.40266048e-02  2.08141464e+00  1.15210986e+00 -4.04920001e-02 -4.18727921e-02
  6.36326423e-02 -3.27089156e-01 -5.70523988e-02  4.30404849e-01 -5.78764143e-02
  2.46687480e+00  1.34824514e+00 -4.72930115e-02 -4.32169216e-02 -7.25830859e-02
 -3.82458786e-01 -3.95167706e-02 -4.97068367e-01 -7.50106912e-04 -1.34682948e-03
  6.51913806e-02 -3.88159431e-01  1.25615761e+00  3.54334305e-02  8.61439402e-03
 -3.12163168e-04 -1.09731863e-01  1.17760738e-01 -5.22493823e-04  9.72573833e-01
 -1.60715424e-01 -1.68883874e-03  2.69932246e-02  1.81070044e-04  7.50143857e-06
 -3.09718825e-02 -3.16965497e-02 -1.31809275e-01 -6.93645872e-04  1.67432665e-04
  2.45539769e-01  2.47287602e-01 -2.25689056e-03  2.04676213e-03  5.06098077e-02
 -3.60762653e-01  1.16016365e+00 -1.33865004e-02  3.54754897e-02 -1.88241953e-04
  2.08084450e-01  1.45954771e-01  1.23164777e-03  3.50141873e-02  1.13203786e+00
  1.66896305e-02  2.62490540e-02 -1.68834760e-05  3.03657136e-04  4.25582547e-02
  1.98617842e-02 -1.52604255e-01 -9.00266602e-04  3.06250818e-04 -4.23146766e-01
 -1.54424809e-01  2.49651060e-04 -6.12119019e-04  5.46557686e-03 -5.74190060e-02
 -3.42862390e-02 -1.00186143e-03 -1.80545124e-03  1.10730662e-01  5.35737658e-02
  8.10371359e-03  4.78636963e+00 -8.69306568e-02 -1.04052723e-01  8.11992137e+00
  1.58192120e-03  6.06902218e-02  2.90583512e-02  9.56070296e-04 -5.97383782e-04
  1.27669747e-03  2.10086843e+00  2.57693568e-01 -3.27545016e-02 -2.09627539e-03
  4.93965703e-04 -1.16122812e-03  2.92743026e-03 -3.19814003e-02 -2.28206650e-01
  2.21417720e-04  1.12477925e-03  1.15016037e-02 -3.28285102e-02  5.05931600e-02
  1.95278604e-01 -1.77873327e-02  1.50436616e-02 -1.46842152e-01 -4.97185151e-04
  2.45221272e-03  1.99045587e-02 -2.01478545e-04  3.35126731e-04 -2.35292341e-03
  1.76505562e-01 -2.11953721e-01 -5.03276432e-02  1.93679591e-04  3.49407570e-04
  6.55309034e-02 -5.62410965e-02  2.98920943e-04 -2.04491902e-03 -1.50134955e-02
  4.44820752e-05 -2.27187621e-02 -8.34837009e-02 -6.55662678e-02  9.80291836e+00
  7.95785714e+00 -1.70121839e-01 -7.43960118e-02  2.37080726e-01 -1.19610892e+00
  1.19027048e-01  1.20568988e+00  6.29264705e-02 -9.81849727e+00 -7.76612475e+00
  1.67145004e-01  7.21006261e-02  2.38134443e-01  1.23040763e+00 -1.08030054e-01
  1.19679905e+00 -6.47465678e-05  1.06463219e-04  2.95056162e-04 -2.30000430e-03
  2.81435336e-02  6.95735252e-04 -2.64981400e-04  7.31031820e-03 -2.75641100e-03
 -1.82388037e-03  2.52763323e-02 -2.08713335e-03 -2.50955940e-02 -2.46553854e-01
  4.91774463e-04  5.68561217e-03  1.01149822e-02 -7.25621862e-04  2.52620130e-04
 -1.73989353e-03 -6.62528520e-02 -5.15108316e-02  4.98776054e-03 -4.07813651e-03
 -1.59243380e-04  2.84671080e-04 -2.48749693e-04 -4.13568814e-04  1.05204498e-01
 -2.21770311e-04  5.79330470e-04  1.51903380e-03 -1.29906514e-03  8.36949053e-03
 -1.14263714e-02 -5.58099130e-03  6.75667728e-02 -9.23544625e-01  8.81393476e-04
  3.40789030e-03  7.40334733e-03  8.23923241e-04  6.34430178e-04 -5.45624162e-03
  9.37869180e-03 -1.18415705e-01 -9.16979467e-03 -5.48168933e-03 -6.67616673e-04
  1.27163671e-03  1.09782999e-02 -4.67996283e-01 -2.32185195e+00  8.27682341e-02
 -3.36176597e-02 -2.50351672e-05  5.40582700e+00 -2.54652819e+00 -5.38066189e-04
  7.03675035e+00 -2.71749032e+00 -2.61016772e-02  4.14623023e-02  2.84825055e-04
 -7.78764179e-05  4.03369733e-02  6.58197002e-02  1.93035509e+00  2.26085291e-03
 -2.99833765e-04  1.53324782e+00  2.03887774e+00 -2.74586830e-03  6.60475762e-03
 -4.33879838e-02  8.34331133e-01  2.78186728e+00  1.48705693e-02 -1.72872722e-02
 -7.36690180e-05  1.16664208e+00 -2.95357406e-01  4.34766712e-04  4.65990012e-01
  2.72950563e-01  6.69619364e-03  3.94717150e-03  2.15866125e-04 -7.21031553e-05
 -3.82990750e-02 -4.86990955e-02 -1.17001602e-01 -3.05593049e-03  1.81972510e-04
  5.72575310e-01  8.78897639e-01 -4.61512043e-02  1.54620889e+01  1.07401364e+01
  1.87165234e-01 -2.98442697e-01 -3.07374662e-04  3.10473151e+00 -2.07690741e+00
 -1.26278912e-03  2.03713606e-02 -7.61774489e+00 -5.57985669e+00  7.81929411e-02
  6.40670143e-02 -1.46418513e-01  9.89130553e-01 -1.31378660e-01 -1.43853656e+00
  1.99137614e-02 -7.62410577e+00 -5.52465729e+00  7.88028895e-02  6.36727910e-02
  1.46696816e-01  9.89226347e-01 -1.30840002e-01  1.44067674e+00 -4.80235435e-03