polar                                                                   
SP        RM062X                                                      Gen                 
Number of atoms                            I                7
Info1-9                                    I   N=           9
          98          97           0           0           0         110
           1          18        -502
Charge                                     I               -1
Multiplicity                               I                1
Number of electrons                        I               32
Number of alpha electrons                  I               16
Number of beta electrons                   I               16
Number of basis functions                  I              123
Number of independent functions            I              123
Number of point charges in /Mol/           I                0
Number of translation vectors              I                0
Atomic numbers                             I   N=           7
           6           6           1           1           1           8
           8
Nuclear charges                            R   N=           7
  6.00000000E+00  6.00000000E+00  1.00000000E+00  1.00000000E+00  1.00000000E+00
  8.00000000E+00  8.00000000E+00
Current cartesian coordinates              R   N=          21
 -2.54428286E+00 -1.13586773E-01  2.85538053E-04  3.81933111E-01  3.90875389E-03
 -2.34836320E-03 -3.21788690E+00 -2.06804530E+00  1.16054731E-03 -3.27268314E+00
  8.76401845E-01 -1.66675025E+00 -3.26976620E+00  8.76884631E-01  1.66831300E+00
  1.53794963E+00 -2.09888477E+00  6.06601768E-04  1.30385471E+00  2.22048813E+00
  6.00104543E-04
Force Field                                I                0
Int Atom Types                             I   N=           7
           0           0           0           0           0           0
           0
MM charges                                 R   N=           7
  0.00000000E+00  0.00000000E+00  0.00000000E+00  0.00000000E+00  0.00000000E+00
  0.00000000E+00  0.00000000E+00
Integer atomic weights                     I   N=           7
          12          12           1           1           1          16
          16
Real atomic weights                        R   N=           7
  1.20000000E+01  1.20000000E+01  1.00782504E+00  1.00782504E+00  1.00782504E+00
  1.59949146E+01  1.59949146E+01
Atom fragment info                         I   N=           7
           0           0           0           0           0           0
           0
Atom residue num                           I   N=           7
           0           0           0           0           0           0
           0
Nuclear spins                              I   N=           7
           0           0           1           1           1           0
           0
Nuclear ZEff                               R   N=           7
 -3.60000000E+00 -3.60000000E+00 -1.00000000E+00 -1.00000000E+00 -1.00000000E+00
 -5.60000000E+00 -5.60000000E+00
Nuclear ZNuc                               R   N=           7
  6.00000000E+00  6.00000000E+00  1.00000000E+00  1.00000000E+00  1.00000000E+00
  8.00000000E+00  8.00000000E+00
Nuclear QMom                               R   N=           7
  0.00000000E+00  0.00000000E+00  0.00000000E+00  0.00000000E+00  0.00000000E+00
  0.00000000E+00  0.00000000E+00
Nuclear GFac                               R   N=           7
  0.00000000E+00  0.00000000E+00  2.79284600E+00  2.79284600E+00  2.79284600E+00
  0.00000000E+00  0.00000000E+00
MicOpt                                     I   N=           7
          -1          -1          -1          -1          -1          -1
          -1
Number of contracted shells                I               55
Number of primitive shells                 I              110
Pure/Cartesian d shells                    I                0
Pure/Cartesian f shells                    I                0
Highest angular momentum                   I                2
Largest degree of contraction              I                5
Shell types                                I   N=          55
           0           0           0           0           0           1
           1           1          -2          -2           0           0
           0           0           0           1           1           1
          -2          -2           0           0           0           1
           1           0           0           0           1           1
           0           0           0           1           1           0
           0           0           0           0           1           1
           1          -2          -2           0           0           0
           0           0           1           1           1          -2
          -2
Number of primitives per shell             I   N=          55
           5           2           1           1           1           4
           1           1           2           2           5           2
           1           1           1           4           1           1
           2           2           4           1           1           2
           2           4           1           1           2           2
           4           1           1           2           2           5
           2           1           1           1           4           1
           1           2           2           5           2           1
           1           1           4           1           1           2
           2
Shell to atom map                          I   N=          55
           1           1           1           1           1           1
           1           1           1           1           2           2
           2           2           2           2           2           2
           2           2           3           3           3           3
           3           4           4           4           4           4
           5           5           5           5           5           6
           6           6           6           6           6           6
           6           6           6           7           7           7
           7           7           7           7           7           7
           7
Primitive exponents                        R   N=         110
  5.24063530E+03  7.82204800E+02  1.78350830E+02  5.08159420E+01  1.68235620E+01
  6.17577600E+00  2.41804900E+00  5.11900000E-01  1.56590000E-01  4.79000000E-02
  1.88418000E+01  4.15924000E+00  1.20671000E+00  3.85540000E-01  1.21940000E-01
  3.85680000E-02  1.20670000E+00  3.85500000E-01  1.21900000E-01  3.86000000E-02
  5.24063530E+03  7.82204800E+02  1.78350830E+02  5.08159420E+01  1.68235620E+01
  6.17577600E+00  2.41804900E+00  5.11900000E-01  1.56590000E-01  4.79000000E-02
  1.88418000E+01  4.15924000E+00  1.20671000E+00  3.85540000E-01  1.21940000E-01
  3.85680000E-02  1.20670000E+00  3.85500000E-01  1.21900000E-01  3.86000000E-02
  3.38650140E+01  5.09478800E+00  1.15878600E+00  3.25840000E-01  1.02741000E-01
  3.24000000E-02  1.15880000E+00  3.25800000E-01  1.02700000E-01  3.24000000E-02
  3.38650140E+01  5.09478800E+00  1.15878600E+00  3.25840000E-01  1.02741000E-01
  3.24000000E-02  1.15880000E+00  3.25800000E-01  1.02700000E-01  3.24000000E-02
  3.38650140E+01  5.09478800E+00  1.15878600E+00  3.25840000E-01  1.02741000E-01
  3.24000000E-02  1.15880000E+00  3.25800000E-01  1.02700000E-01  3.24000000E-02
  1.06622850E+04  1.59970970E+03  3.64725260E+02  1.03651790E+02  3.39058050E+01
  1.22874690E+01  4.75680500E+00  1.00427100E+00  3.00686000E-01  9.00300000E-02
  3.48564630E+01  7.84313100E+00  2.30624900E+00  7.23164000E-01  2.14882000E-01
  6.38500000E-02  2.30620000E+00  7.23200000E-01  2.14900000E-01  6.39000000E-02
  1.06622850E+04  1.59970970E+03  3.64725260E+02  1.03651790E+02  3.39058050E+01
  1.22874690E+01  4.75680500E+00  1.00427100E+00  3.00686000E-01  9.00300000E-02
  3.48564630E+01  7.84313100E+00  2.30624900E+00  7.23164000E-01  2.14882000E-01
  6.38500000E-02  2.30620000E+00  7.23200000E-01  2.14900000E-01  6.39000000E-02
Contraction coefficients                   R   N=         110
  2.06539993E-03  1.59324554E-02  8.01119476E-02  2.87877514E-01  7.03009673E-01
  6.94067370E-01  3.40077856E-01  1.00000000E+00  1.00000000E+00  1.00000000E+00
  1.80615059E-02  1.12214925E-01  3.75541979E-01  6.49536597E-01  1.00000000E+00
  1.00000000E+00  2.67978866E-01  8.19993920E-01  4.83796365E-01  6.39336711E-01
  2.06539993E-03  1.59324554E-02  8.01119476E-02  2.87877514E-01  7.03009673E-01
  6.94067370E-01  3.40077856E-01  1.00000000E+00  1.00000000E+00  1.00000000E+00
  1.80615059E-02  1.12214925E-01  3.75541979E-01  6.49536597E-01  1.00000000E+00
  1.00000000E+00  2.67978866E-01  8.19993920E-01  4.83796365E-01  6.39336711E-01
  8.76044950E-03  6.54232910E-02  2.92851374E-01  7.27211150E-01  1.00000000E+00
  1.00000000E+00  1.86447366E-01  8.73088966E-01  9.76214574E-01  3.48056130E-02
  8.76044950E-03  6.54232910E-02  2.92851374E-01  7.27211150E-01  1.00000000E+00
  1.00000000E+00  1.86447366E-01  8.73088966E-01  9.76214574E-01  3.48056130E-02
  8.76044950E-03  6.54232910E-02  2.92851374E-01  7.27211150E-01  1.00000000E+00
  1.00000000E+00  1.86447366E-01  8.73088966E-01  9.76214574E-01  3.48056130E-02
  1.90604745E-03  1.46782352E-02  7.43263084E-02  2.75759025E-01  7.19364732E-01
  6.69996511E-01  3.66229217E-01  1.00000000E+00  1.00000000E+00  1.00000000E+00
  1.99439284E-02  1.25155543E-01  3.92261182E-01  6.27670401E-01  1.00000000E+00
  1.00000000E+00  2.83613619E-01  8.10264660E-01  6.73833443E-01  4.58004278E-01
  1.90604745E-03  1.46782352E-02  7.43263084E-02  2.75759025E-01  7.19364732E-01
  6.69996511E-01  3.66229217E-01  1.00000000E+00  1.00000000E+00  1.00000000E+00
  1.99439284E-02  1.25155543E-01  3.92261182E-01  6.27670401E-01  1.00000000E+00
  1.00000000E+00  2.83613619E-01  8.10264660E-01  6.73833443E-01  4.58004278E-01
Coordinates of each shell                  R   N=         165
 -2.54428286E+00 -1.13586773E-01  2.85538053E-04 -2.54428286E+00 -1.13586773E-01
  2.85538053E-04 -2.54428286E+00 -1.13586773E-01  2.85538053E-04 -2.54428286E+00
 -1.13586773E-01  2.85538053E-04 -2.54428286E+00 -1.13586773E-01  2.85538053E-04
 -2.54428286E+00 -1.13586773E-01  2.85538053E-04 -2.54428286E+00 -1.13586773E-01
  2.85538053E-04 -2.54428286E+00 -1.13586773E-01  2.85538053E-04 -2.54428286E+00
 -1.13586773E-01  2.85538053E-04 -2.54428286E+00 -1.13586773E-01  2.85538053E-04
  3.81933111E-01  3.90875389E-03 -2.34836320E-03  3.81933111E-01  3.90875389E-03
 -2.34836320E-03  3.81933111E-01  3.90875389E-03 -2.34836320E-03  3.81933111E-01
  3.90875389E-03 -2.34836320E-03  3.81933111E-01  3.90875389E-03 -2.34836320E-03
  3.81933111E-01  3.90875389E-03 -2.34836320E-03  3.81933111E-01  3.90875389E-03
 -2.34836320E-03  3.81933111E-01  3.90875389E-03 -2.34836320E-03  3.81933111E-01
  3.90875389E-03 -2.34836320E-03  3.81933111E-01  3.90875389E-03 -2.34836320E-03
 -3.21788690E+00 -2.06804530E+00  1.16054731E-03 -3.21788690E+00 -2.06804530E+00
  1.16054731E-03 -3.21788690E+00 -2.06804530E+00  1.16054731E-03 -3.21788690E+00
 -2.06804530E+00  1.16054731E-03 -3.21788690E+00 -2.06804530E+00  1.16054731E-03
 -3.27268314E+00  8.76401845E-01 -1.66675025E+00 -3.27268314E+00  8.76401845E-01
 -1.66675025E+00 -3.27268314E+00  8.76401845E-01 -1.66675025E+00 -3.27268314E+00
  8.76401845E-01 -1.66675025E+00 -3.27268314E+00  8.76401845E-01 -1.66675025E+00
 -3.26976620E+00  8.76884631E-01  1.66831300E+00 -3.26976620E+00  8.76884631E-01
  1.66831300E+00 -3.26976620E+00  8.76884631E-01  1.66831300E+00 -3.26976620E+00
  8.76884631E-01  1.66831300E+00 -3.26976620E+00  8.76884631E-01  1.66831300E+00
  1.53794963E+00 -2.09888477E+00  6.06601768E-04  1.53794963E+00 -2.09888477E+00
  6.06601768E-04  1.53794963E+00 -2.09888477E+00  6.06601768E-04  1.53794963E+00
 -2.09888477E+00  6.06601768E-04  1.53794963E+00 -2.09888477E+00  6.06601768E-04
  1.53794963E+00 -2.09888477E+00  6.06601768E-04  1.53794963E+00 -2.09888477E+00
  6.06601768E-04  1.53794963E+00 -2.09888477E+00  6.06601768E-04  1.53794963E+00
 -2.09888477E+00  6.06601768E-04  1.53794963E+00 -2.09888477E+00  6.06601768E-04
  1.30385471E+00  2.22048813E+00  6.00104543E-04  1.30385471E+00  2.22048813E+00
  6.00104543E-04  1.30385471E+00  2.22048813E+00  6.00104543E-04  1.30385471E+00
  2.22048813E+00  6.00104543E-04  1.30385471E+00  2.22048813E+00  6.00104543E-04
  1.30385471E+00  2.22048813E+00  6.00104543E-04  1.30385471E+00  2.22048813E+00
  6.00104543E-04  1.30385471E+00  2.22048813E+00  6.00104543E-04  1.30385471E+00
  2.22048813E+00  6.00104543E-04  1.30385471E+00  2.22048813E+00  6.00104543E-04
Constraint Structure                       R   N=          21
 -2.54428286E+00 -1.13586773E-01  2.85538053E-04  3.81933111E-01  3.90875389E-03
 -2.34836320E-03 -3.21788690E+00 -2.06804530E+00  1.16054731E-03 -3.27268314E+00
  8.76401845E-01 -1.66675025E+00 -3.26976620E+00  8.76884631E-01  1.66831300E+00
  1.53794963E+00 -2.09888477E+00  6.06601768E-04  1.30385471E+00  2.22048813E+00
  6.00104543E-04
Num ILSW                                   I              100
ILSW                                       I   N=         100
           0           0           0           0           2           0
           0           0           0           0        4336          -1
           0           0           0           0           0           0
           0           0           0           0           0           0
           1           0           0           0           0           0
           0           0      100000           0          -1           0
           0           0           0           0           0           0
           0           0           0           1           0           0
           0           0           1           0           0           0
           0           0           4          41           0           0
           0           0          55           0           0           0
           0           0           0           7           0           0
           0           0           0           0           0           0
           0           0           0           0           0           0
           0           0           0           0           0           0
           0           0           0           0           0           0
           0           0           0           0
Num RLSW                                   I               41
RLSW                                       R   N=          41
  1.00000000E+00  1.00000000E+00  1.00000000E+00  1.00000000E+00  5.40000000E-01
  0.00000000E+00  0.00000000E+00  1.00000000E+00  0.00000000E+00  0.00000000E+00
  0.00000000E+00  0.00000000E+00  1.00000000E+00  0.00000000E+00  0.00000000E+00
  0.00000000E+00  0.00000000E+00  1.00000000E+00  0.00000000E+00  0.00000000E+00
  0.00000000E+00  0.00000000E+00  1.00000000E+00  0.00000000E+00  0.00000000E+00
  0.00000000E+00  0.00000000E+00  1.00000000E+00  0.00000000E+00  0.00000000E+00
  0.00000000E+00  0.00000000E+00  1.00000000E+00  0.00000000E+00  0.00000000E+00
  0.00000000E+00  0.00000000E+00  0.00000000E+00  1.00000000E+00  1.00000000E+00
  0.00000000E+00
MxBond                                     I                4
NBond                                      I   N=           7
           4           3           1           1           1           1
           1
IBond                                      I   N=          28
           2           3           4           5           1           6
           7           0           1           0           0           0
           1           0           0           0           1           0
           0           0           2           0           0           0
           2           0           0           0
RBond                                      R   N=          28
  1.00000000E+00  1.00000000E+00  1.00000000E+00  1.00000000E+00  1.00000000E+00
  2.00000000E+00  2.00000000E+00  0.00000000E+00  1.00000000E+00  0.00000000E+00
  0.00000000E+00  0.00000000E+00  1.00000000E+00  0.00000000E+00  0.00000000E+00
  0.00000000E+00  1.00000000E+00  0.00000000E+00  0.00000000E+00  0.00000000E+00
  2.00000000E+00  0.00000000E+00  0.00000000E+00  0.00000000E+00  2.00000000E+00
  0.00000000E+00  0.00000000E+00  0.00000000E+00
Virial Ratio                               R      2.005980941115927E+00
SCF Energy                                 R     -2.284970262568320E+02
Total Energy                               R     -2.284970262568320E+02
RMS Density                                R      2.398428527947768E-09
External E-field                           R   N=          35
  0.00000000E+00 -8.00000000E-04  0.00000000E+00  0.00000000E+00  0.00000000E+00
  0.00000000E+00  0.00000000E+00  0.00000000E+00  0.00000000E+00  0.00000000E+00
  0.00000000E+00  0.00000000E+00  0.00000000E+00  0.00000000E+00  0.00000000E+00
  0.00000000E+00  0.00000000E+00  0.00000000E+00  0.00000000E+00  0.00000000E+00
  0.00000000E+00  0.00000000E+00  0.00000000E+00  0.00000000E+00  0.00000000E+00
  0.00000000E+00  0.00000000E+00  0.00000000E+00  0.00000000E+00  0.00000000E+00
  0.00000000E+00  0.00000000E+00  0.00000000E+00  0.00000000E+00  0.00000000E+00
IOpCl                                      I                0
IROHF                                      I                0
Alpha Orbital Energies                     R   N=         123
 -1.93762387E+01 -1.93739560E+01 -1.04405949E+01 -1.03692007E+01 -9.33734986E-01
 -8.43977405E-01 -6.28489655E-01 -3.88886429E-01 -3.19113372E-01 -3.13140616E-01
 -3.03411298E-01 -2.59741305E-01 -2.31632518E-01 -1.13401623E-01 -1.08277934E-01
 -1.07386299E-01  1.05549318E-01  1.19226557E-01  1.23444954E-01  1.54454310E-01
  1.84138889E-01  1.89554800E-01  1.92736400E-01  1.98017814E-01  1.99718207E-01
  2.38707255E-01  2.45590874E-01  2.54416484E-01  2.62067930E-01  2.83793965E-01
  3.04938908E-01  3.27392248E-01  3.36219681E-01  3.42968264E-01  3.55480294E-01
  3.64559458E-01  3.75961614E-01  3.90307903E-01  3.96569453E-01  3.96909949E-01
  4.30615098E-01  4.44480570E-01  4.62995884E-01  4.72266915E-01  4.73250349E-01
  4.83584537E-01  4.83807062E-01  4.90952047E-01  4.90989958E-01  5.08497911E-01
  5.09148811E-01  5.29505269E-01  5.54937945E-01  5.58420588E-01  5.88331978E-01
  5.99542739E-01  6.18653739E-01  6.38534890E-01  6.81940823E-01  7.19233330E-01
  7.42497903E-01  7.59910407E-01  7.70084611E-01  8.04319241E-01  8.12873932E-01
  8.25305403E-01  8.36834446E-01  8.49417761E-01  9.30916291E-01  9.36260898E-01
  9.45493167E-01  9.79971371E-01  9.87168437E-01  1.00763205E+00  1.01795913E+00
  1.02516503E+00  1.06461000E+00  1.07729673E+00  1.08500297E+00  1.13267382E+00
  1.17007533E+00  1.19278280E+00  1.23075832E+00  1.27325523E+00  1.29411644E+00
  1.39401024E+00  1.39446096E+00  1.44702383E+00  1.45204122E+00  1.53323251E+00
  1.56716402E+00  1.60760116E+00  1.62859372E+00  1.67935494E+00  1.68635712E+00
  1.74321511E+00  1.77394662E+00  1.80018741E+00  1.83538255E+00  1.99865740E+00
  2.04486014E+00  2.19743579E+00  2.20951038E+00  2.28327340E+00  2.32422343E+00
  2.45226175E+00  2.48014514E+00  2.54292743E+00  2.60335715E+00  2.63459775E+00
  2.68452535E+00  2.73782378E+00  2.83269514E+00  2.87725641E+00  3.15665270E+00
  3.18764995E+00  3.33449867E+00  3.40765037E+00  3.54104120E+00  2.19434399E+01
  2.21952424E+01  4.30547290E+01  4.31053338E+01
Alpha MO coefficients                      R   N=       15129
 -9.12595839E-06  4.87673966E-05 -9.77730363E-05  8.51165382E-04  5.17419878E-04
 -2.33211120E-04 -2.76584093E-05  5.74597507E-07 -1.46147724E-03  1.57439090E-03
  2.34753747E-06 -3.12309178E-03 -4.64366215E-03  1.91857307E-05 -6.79800338E-05
  3.99361332E-07 -7.88759614E-07 -2.97922964E-04  2.64022036E-04  1.41988825E-03
  9.38294801E-06  6.67489461E-06 -5.52417570E-05 -2.34018541E-03 -1.98346943E-05
  4.54225227E-05  3.29818515E-04  1.34001308E-02  2.43495086E-03  3.82902905E-04
 -3.75742221E-04  2.36456898E-06  6.45667763E-03 -8.07656525E-03  1.30112599E-05
  2.21650262E-03  5.73369796E-03 -1.95863048E-05 -1.66885598E-04  1.00155921E-06
  1.05215718E-06  4.90444562E-04  6.13887831E-04 -3.09017239E-04  1.21773200E-05
 -1.09535817E-06 -1.92078433E-03 -2.91095034E-03 -5.10907525E-06  3.16161522E-03
  4.12628506E-05 -4.48311929E-05 -1.60901312E-04  2.39530340E-07 -2.61225547E-04
  7.12015166E-04  3.17350524E-06  2.31878180E-05 -8.62749286E-04 -1.19064190E-03
  2.51335708E-04 -8.89412869E-05  1.62459090E-05  7.87832565E-04  1.08057225E-04
 -2.83770476E-04  2.49084963E-05 -8.78545565E-04 -1.18832163E-03  2.49618249E-04
 -8.90369890E-05 -1.61101986E-05  7.81834007E-04  1.07628731E-04  2.87195714E-04
  4.19529840E-01  6.62361719E-01  1.89360158E-02 -1.24317778E-02 -8.85128428E-03
 -7.19816523E-04  1.33106013E-03 -2.66602776E-06  2.43500219E-03 -4.98506887E-03
  7.50857335E-06  1.04229138E-04 -2.18548434E-03  2.83670054E-06  7.63346817E-06
  1.52718649E-07 -1.33310729E-07 -4.52189338E-05 -5.70415113E-05  4.28763536E-04
 -2.19139182E-06  2.56400301E-06  9.97710856E-04  1.08443064E-03 -2.33913037E-03
 -3.68270672E-03 -8.31844843E-05 -4.32739110E-04  2.32761053E-03  7.49822724E-05
  8.18280053E-05  6.26743262E-07 -1.06853869E-03  1.48058811E-03 -4.36699305E-06
 -1.02268545E-03 -6.67825079E-04 -3.67216246E-06  1.23333333E-05  4.50741713E-07
 -4.33821399E-07  1.26202098E-04  7.29436885E-05  1.88408427E-04  1.04744920E-06
  3.02122005E-06  1.30807345E-03  3.09187576E-04 -1.11023697E-05  5.88257321E-05
 -2.35330540E-04  1.08106490E-03  2.06173265E-03 -2.86432214E-04 -4.60277165E-05
  5.64669329E-07  8.50155188E-04 -2.64808069E-03 -1.41035818E-05 -1.02974802E-03
  1.30966205E-03  2.89581594E-05  5.48678844E-05  5.55803476E-07  1.11275030E-06
 -2.40302337E-04 -1.97632968E-04  1.21513717E-03  1.27793948E-05 -3.19693913E-06
  4.40936518E-04 -2.73837257E-04 -2.09435299E-05  5.02349371E-05  3.95423617E-04
  1.01512367E-02 -1.36973605E-03  3.68942517E-04  4.19361478E-04  2.33057837E-06
  5.61485166E-03  9.69701964E-03  9.97955997E-06  2.00624875E-03 -1.02928043E-03
 -2.79597501E-05 -1.00678590E-04  7.33927188E-07 -1.01486049E-06  6.26567897E-04
 -5.19014941E-04 -4.34086974E-04  1.55169558E-05  6.74552853E-06 -1.59676080E-03
  5.70703935E-04 -1.00704248E-04 -3.95423752E-04  9.79030485E-04  1.06755051E-04
  5.42266384E-05  1.30861619E-06 -1.31172863E-04 -4.33530902E-05 -1.64754573E-06
  5.94290571E-07  1.17823420E-03 -8.43935674E-04 -1.57746795E-04  7.37618189E-05
  3.73020676E-05  3.69946695E-04  3.23288739E-04  5.81425042E-04  1.23460653E-06
  1.23578681E-03 -8.42006411E-04 -1.58297549E-04  7.23430765E-05 -3.65540030E-05
  3.70506874E-04  3.15458347E-04 -6.00779553E-04  2.33890032E-03  3.70380343E-03
  1.09223936E-04 -3.64752379E-04  3.16334247E-03  8.46394054E-05 -6.31811599E-05
  5.69853592E-07 -1.19445423E-03 -1.34851299E-03 -4.13614330E-06 -1.56729618E-03
  5.40689307E-04 -3.23165741E-06  1.49177921E-07  2.92633265E-07  4.87551475E-07
  1.31585664E-04 -3.08858725E-05  2.09836176E-04  2.03051673E-06 -3.07055296E-06
  1.25005118E-03 -2.64955021E-04  4.19528968E-01  6.62377681E-01  1.88015250E-02
 -1.17508322E-02 -8.32508054E-03 -6.06144377E-04 -1.40727360E-03 -2.60459326E-06
  1.93906598E-03  4.86968114E-03  6.05712535E-06  4.25055593E-04  1.98619953E-03
 -4.19602745E-07  6.77012369E-06  2.49513280E-07  1.43285802E-07 -4.37291788E-05
  5.84721922E-05  4.10546152E-04 -2.16191045E-06 -2.15371227E-06  9.55862096E-04
 -8.59802746E-04  9.59595356E-04  1.39826511E-03  1.05702336E-04  1.05581342E-03
  1.33223582E-02 -3.48348971E-05 -3.48259032E-05 -4.56228047E-08  7.62445706E-03
 -2.36225072E-03  3.56564581E-06  5.89927808E-03 -5.70828932E-04 -3.56834976E-05
  2.99767575E-04  1.43079812E-06  1.66978639E-07 -4.76317977E-04  1.44863254E-05
 -2.51382596E-03 -1.53198028E-05 -3.35576780E-06  1.78925114E-03 -4.34740239E-04
  4.53382015E-01  6.29364221E-01  2.09169875E-02 -8.71063890E-03 -2.58687314E-02
  6.08461693E-04  3.83871375E-05  1.89265886E-06  8.42147725E-03  1.00080377E-03
 -1.63098004E-05  1.87616943E-03  9.98650934E-04  2.11462791E-05 -4.60686946E-04
  7.42907795E-07  6.13432134E-08 -6.65515849E-04 -1.39997961E-04  2.39131513E-03
 -9.95426250E-06  1.37041146E-06 -4.99973448E-04 -8.66861327E-04 -2.09351281E-04
 -9.41693215E-04  1.41424129E-03 -1.32681126E-04  2.25556423E-05 -7.50853171E-07
  1.75823873E-04 -6.87022488E-05 -2.21162021E-06 -1.65091416E-04  6.65176246E-03
  1.36684378E-03 -5.96611687E-05  1.16976579E-05  2.35713017E-04  1.73922719E-03
 -1.36061525E-03  1.14491934E-03 -1.65472274E-04  6.61440760E-03  1.37951574E-03
 -5.94835780E-05  1.22563567E-05 -2.35692070E-04  1.73371253E-03 -1.35287984E-03
 -1.13483551E-03 -7.25402270E-05 -1.91203044E-04  7.85497497E-04 -2.13676397E-03
  2.20525923E-03  1.46967726E-04 -4.99202968E-05 -4.55561706E-07  4.16457069E-04
 -2.23872861E-03  8.84424697E-06  3.98331718E-04 -8.82732777E-04  4.41995985E-07
  2.65496480E-04 -8.46694543E-07  1.05534405E-06  1.53772327E-04  3.95363597E-04
  8.29663617E-04 -1.45140062E-06  6.78499548E-06  9.05574932E-04  1.02727039E-03
 -7.25376463E-05 -1.83566869E-04  7.21794646E-04 -1.82514745E-03  1.50577462E-03
  1.03488724E-04  4.62137717E-05 -5.40897304E-07  4.40483321E-04  2.23242400E-03
  8.51664639E-06  1.66895559E-03  9.28309666E-04  2.17331966E-07  2.54946738E-04
 -5.13900537E-07 -1.03018893E-06  2.62228584E-04 -3.42525101E-04  8.38081720E-04
 -2.06833144E-06 -7.07793464E-06  7.91593841E-04 -9.97054937E-04  4.53287966E-01
  6.29192249E-01  2.25520636E-02 -2.27657040E-02 -1.31789798E-02 -7.65966752E-04
  1.21749450E-04  2.54291716E-07 -2.97404585E-03 -9.28915283E-04  2.24054548E-06
 -2.92217488E-03 -2.26440458E-03 -1.24096071E-05  2.13369083E-04  5.54273057E-07
 -1.08707398E-07 -3.17870896E-04 -3.78894833E-05  1.03990645E-03 -3.37603062E-06
  2.97801023E-07 -1.10522789E-03 -1.11637945E-03 -1.02886699E-03 -1.36501515E-03
 -1.71434738E-04  3.84619456E-03  6.98460998E-03 -2.76175857E-04 -3.78787310E-05
  1.25435416E-07 -4.53046324E-03  3.33761960E-04  8.12946430E-06 -3.92389954E-04
  3.23412082E-03  1.45851895E-05  8.08994403E-05  6.76432706E-07  5.29556061E-09
 -5.40958924E-04 -2.17484637E-05 -1.46094822E-04 -6.27885865E-06  9.67526921E-07
 -1.55308798E-04 -1.55982478E-03 -3.44607525E-04  4.96937825E-03  1.48943416E-03
 -3.54137817E-04 -1.14476649E-03  3.10884666E-07  8.34468920E-04  2.56426618E-03
 -1.07626198E-06 -3.92897671E-04  4.40839065E-03  4.13205859E-04 -3.88534442E-04
  6.38379630E-04 -1.02880170E-03  1.17476439E-03 -1.17302808E-03  2.09247131E-03
 -3.92359318E-04  4.39582092E-03  4.15123529E-04 -3.86411638E-04  6.38826654E-04
  1.02915572E-03  1.17053146E-03 -1.17094546E-03 -2.08900507E-03  1.40255459E-06
  2.53089282E-05 -1.17304868E-04 -2.92340354E-04  9.87315610E-04  1.08821706E-04
 -1.03900415E-04  2.22691011E-07  2.49602701E-04  4.37608420E-04 -7.24197617E-07
 -5.88926977E-04 -2.18080738E-04 -1.62722446E-06 -3.03989703E-05 -3.25433844E-07
 -4.95184560E-08 -4.48452325E-05  3.31403829E-05 -2.28057935E-04  4.94145574E-07
 -1.21819889E-06  7.15852466E-05  1.58940988E-04  1.16694452E-06  3.15428579E-05
 -1.63801850E-04 -1.61830464E-04  1.69259399E-03  8.99477394E-05  1.31565917E-04
  3.10090670E-07  4.87401509E-04 -5.12514083E-04 -1.43776598E-06  2.17694235E-04
 -1.20867470E-03 -6.33870951E-07 -2.67775026E-05 -1.64457929E-07 -2.58068557E-08
 -5.90030542E-06 -5.26702921E-05 -2.99366794E-04 -8.39547710E-07  1.36610644E-06
 -8.24500344E-05 -5.47668796E-05 -1.12309434E-02 -2.53716567E-02  5.15167668E-02
 -5.26536214E-02 -2.34684278E-01  3.73702599E-02  2.18025901E-03 -1.65979048E-05
  6.12120222E-04  1.84125927E-02  1.28356654E-05 -2.11472402E-02  1.01803072E-02
 -1.76867286E-04 -3.79124789E-03 -1.04684694E-05 -1.06957260E-06  9.12989229E-03
  4.60012292E-04 -2.85212118E-02 -1.06352756E-04 -1.32853055E-05 -1.23649682E-02
  1.67529570E-02 -6.26889750E-02 -1.39379919E-01  2.87490809E-01  2.57423181E-01
  2.71763178E-01  9.41235437E-02  3.55663676E-03  2.93181409E-04 -4.78244143E-02
 -1.21683440E-02  1.76245843E-06 -1.28635878E-01 -3.12638258E-02  2.75123379E-04
 -1.88104959E-02  2.39280891E-05  8.68130179E-07 -2.51758502E-02 -2.85709276E-03
  1.86552745E-02 -1.93486011E-04 -3.61426748E-05  7.03490400E-02  1.83817058E-02
  1.64576701E-02  2.64468092E-02 -2.95274412E-02  1.75634067E-03  5.06288139E-03
 -4.48284472E-06  1.15057627E-02  1.17281063E-02 -2.23922827E-05  1.67219976E-02
  1.40055769E-02  1.30048609E-03  6.01020718E-04 -2.25709788E-03  3.09426980E-03
 -5.21957763E-03 -4.47827141E-03 -4.03746369E-03  1.67263693E-02  1.39071352E-02
  1.24935913E-03  6.03701391E-04 -2.25134204E-03 -3.10177320E-03 -5.18016170E-03
 -4.48923395E-03  4.10129010E-03 -5.75480539E-02 -1.44659031E-01  2.95878773E-01
  2.64380581E-01 -5.63720309E-02 -5.16847313E-02  1.04966033E-01 -1.16221915E-04
  1.01079634E-02 -1.00733668E-02  2.93367679E-05  4.05766226E-02 -5.80980623E-02
  5.24075937E-05 -6.47122405E-03  7.84958995E-06 -2.88289554E-05 -8.34411702E-03
 -1.03981730E-02  1.44684111E-02 -1.41529499E-05  6.66884533E-05  4.21471822E-03
  1.83377001E-02 -5.66770538E-02 -1.42482851E-01  2.91528750E-01  2.59170332E-01
 -4.67841795E-02 -3.94552435E-02 -1.08775805E-01 -1.13805577E-04  6.31471860E-03
  1.07636033E-02  3.40553973E-05  2.63715535E-02  6.12249578E-02  6.98925621E-05
 -6.47488421E-03  3.93766800E-06  2.89507605E-05 -1.03256859E-02  8.21711749E-03
  1.43205772E-02 -3.52383177E-07 -6.75772880E-05  8.94508762E-03 -1.62365345E-02
 -5.36790347E-04 -1.17818267E-03  2.29028531E-03 -1.04962163E-03 -6.71121035E-03
  7.81219696E-04  1.78624434E-02 -7.37082391E-07 -5.80311860E-03 -1.50287931E-02
 -5.83193805E-05  6.05761424E-03 -1.02417624E-01 -1.15923221E-04 -6.49554856E-05
  6.04982134E-07 -8.55379933E-06 -4.39256988E-04  5.86498882E-03 -6.33896146E-03
 -1.08886877E-04  2.11844247E-04  2.38670995E-03 -2.82998738E-02 -4.83384838E-04
 -1.10533634E-03  2.25459869E-03  1.07151520E-02 -1.25754280E-02 -1.64797568E-02