 Entering Gaussian System, Link 0=g09
 Input=mx.inp
 Output=mx.log
 Initial command:
 /opt/g09/l1.exe "/scratch/data/esther/gaussian_scratch/Gau-24023.inp" -scrdir="/scratch/data/esther/gaussian_scratch/"
 Entering Link 1 = /opt/g09/l1.exe PID=     24025.
  
 Copyright (c) 1988,1990,1992,1993,1995,1998,2003,2009,2013,
            Gaussian, Inc.  All Rights Reserved.
  
 This is part of the Gaussian(R) 09 program.  It is based on
 the Gaussian(R) 03 system (copyright 2003, Gaussian, Inc.),
 the Gaussian(R) 98 system (copyright 1998, Gaussian, Inc.),
 the Gaussian(R) 94 system (copyright 1995, Gaussian, Inc.),
 the Gaussian 92(TM) system (copyright 1992, Gaussian, Inc.),
 the Gaussian 90(TM) system (copyright 1990, Gaussian, Inc.),
 the Gaussian 88(TM) system (copyright 1988, Gaussian, Inc.),
 the Gaussian 86(TM) system (copyright 1986, Carnegie Mellon
 University), and the Gaussian 82(TM) system (copyright 1983,
 Carnegie Mellon University). Gaussian is a federally registered
 trademark of Gaussian, Inc.
  
 This software contains proprietary and confidential information,
 including trade secrets, belonging to Gaussian, Inc.
  
 This software is provided under written license and may be
 used, copied, transmitted, or stored only in accord with that
 written license.
  
 The following legend is applicable only to US Government
 contracts under FAR:
  
                    RESTRICTED RIGHTS LEGEND
  
 Use, reproduction and disclosure by the US Government is
 subject to restrictions as set forth in subparagraphs (a)
 and (c) of the Commercial Computer Software - Restricted
 Rights clause in FAR 52.227-19.
  
 Gaussian, Inc.
 340 Quinnipiac St., Bldg. 40, Wallingford CT 06492
  
  
 ---------------------------------------------------------------
 Warning -- This program may not be used in any manner that
 competes with the business of Gaussian, Inc. or will provide
 assistance to any competitor of Gaussian, Inc.  The licensee
 of this program is prohibited from giving any competitor of
 Gaussian, Inc. access to this program.  By using this program,
 the user acknowledges that Gaussian, Inc. is engaged in the
 business of creating and licensing software in the field of
 computational chemistry and represents and warrants to the
 licensee that it is not a competitor of Gaussian, Inc. and that
 it will not use this program in any manner prohibited above.
 ---------------------------------------------------------------
  

 Cite this work as:
 Gaussian 09, Revision D.01,
 M. J. Frisch, G. W. Trucks, H. B. Schlegel, G. E. Scuseria, 
 M. A. Robb, J. R. Cheeseman, G. Scalmani, V. Barone, B. Mennucci, 
 G. A. Petersson, H. Nakatsuji, M. Caricato, X. Li, H. P. Hratchian, 
 A. F. Izmaylov, J. Bloino, G. Zheng, J. L. Sonnenberg, M. Hada, 
 M. Ehara, K. Toyota, R. Fukuda, J. Hasegawa, M. Ishida, T. Nakajima, 
 Y. Honda, O. Kitao, H. Nakai, T. Vreven, J. A. Montgomery, Jr., 
 J. E. Peralta, F. Ogliaro, M. Bearpark, J. J. Heyd, E. Brothers, 
 K. N. Kudin, V. N. Staroverov, T. Keith, R. Kobayashi, J. Normand, 
 K. Raghavachari, A. Rendell, J. C. Burant, S. S. Iyengar, J. Tomasi, 
 M. Cossi, N. Rega, J. M. Millam, M. Klene, J. E. Knox, J. B. Cross, 
 V. Bakken, C. Adamo, J. Jaramillo, R. Gomperts, R. E. Stratmann, 
 O. Yazyev, A. J. Austin, R. Cammi, C. Pomelli, J. W. Ochterski, 
 R. L. Martin, K. Morokuma, V. G. Zakrzewski, G. A. Voth, 
 P. Salvador, J. J. Dannenberg, S. Dapprich, A. D. Daniels, 
 O. Farkas, J. B. Foresman, J. V. Ortiz, J. Cioslowski, 
 and D. J. Fox, Gaussian, Inc., Wallingford CT, 2013.
 
 ******************************************
 Gaussian 09:  ES64L-G09RevD.01 24-Apr-2013
                15-May-2019 
 ******************************************
 %nprocshared=4
 Will use up to    4 processors via shared memory.
 %Chk=mx
 ------------------------------------------
 #p M062X/Gen SCF=(MAXCYCLE=1000) field=x-8
 ------------------------------------------
 1/38=1/1;
 2/12=2,17=6,18=5,40=1/2;
 3/5=7,11=2,14=1,15=-8,16=1,25=1,30=1,74=-55/1,2,3;
 4//1;
 5/5=2,7=1000,38=5/2;
 6/7=2,8=2,9=2,10=2,28=1/1;
 99/5=1,9=1/99;
 Leave Link    1 at Wed May 15 16:25:07 2019, MaxMem=           0 cpu:         0.2
 (Enter /opt/g09/l101.exe)
 -----
 polar
 -----
 Symbolic Z-matrix:
 Charge = -1 Multiplicity = 1
 C                     0.61315   1.29682  -0.00141 
 C                    -0.0545   -0.10173  -0.00109 
 H                    -0.13523   2.09474  -0.00094 
 H                     1.25559   1.39253  -0.88421 
 H                     1.25664   1.39247   0.88063 
 O                    -1.32413  -0.12348   0.0016 
 O                     0.75524  -1.08059   0.00056 
 
 NAtoms=      7 NQM=        7 NQMF=       0 NMMI=      0 NMMIF=      0
                NMic=       0 NMicF=      0.
                    Isotopes and Nuclear Properties:
 (Nuclear quadrupole moments (NQMom) in fm**2, nuclear magnetic moments (NMagM)
  in nuclear magnetons)

  Atom         1           2           3           4           5           6           7
 IAtWgt=          12          12           1           1           1          16          16
 AtmWgt=  12.0000000  12.0000000   1.0078250   1.0078250   1.0078250  15.9949146  15.9949146
 NucSpn=           0           0           1           1           1           0           0
 AtZEff=   0.0000000   0.0000000   0.0000000   0.0000000   0.0000000   0.0000000   0.0000000
 NQMom=    0.0000000   0.0000000   0.0000000   0.0000000   0.0000000   0.0000000   0.0000000
 NMagM=    0.0000000   0.0000000   2.7928460   2.7928460   2.7928460   0.0000000   0.0000000
 AtZNuc=   6.0000000   6.0000000   1.0000000   1.0000000   1.0000000   8.0000000   8.0000000
 Leave Link  101 at Wed May 15 16:25:07 2019, MaxMem=    33554432 cpu:         0.2
 (Enter /opt/g09/l202.exe)
                          Input orientation:                          
 ---------------------------------------------------------------------
 Center     Atomic      Atomic             Coordinates (Angstroms)
 Number     Number       Type             X           Y           Z
 ---------------------------------------------------------------------
      1          6           0        0.613146    1.296818   -0.001409
      2          6           0       -0.054499   -0.101728   -0.001089
      3          1           0       -0.135232    2.094736   -0.000937
      4          1           0        1.255590    1.392531   -0.884205
      5          1           0        1.256638    1.392473    0.880634
      6          8           0       -1.324128   -0.123477    0.001602
      7          8           0        0.755237   -1.080593    0.000555
 ---------------------------------------------------------------------
                    Distance matrix (angstroms):
                    1          2          3          4          5
     1  C    0.000000
     2  C    1.549735   0.000000
     3  H    1.093958   2.197947   0.000000
     4  H    1.096004   2.174635   1.790989   0.000000
     5  H    1.096007   2.174661   1.790989   1.764840   0.000000
     6  O    2.402140   1.269818   2.516733   3.120557   3.119480
     7  O    2.381654   1.270375   3.297826   2.673855   2.672452
                    6          7
     6  O    0.000000
     7  O    2.289068   0.000000
 Stoichiometry    C2H3O2(1-)
 Framework group  C1[X(C2H3O2)]
 Deg. of freedom    15
 Full point group                 C1      NOp   1
 Largest Abelian subgroup         C1      NOp   1
 Largest concise Abelian subgroup C1      NOp   1
                         Standard orientation:                         
 ---------------------------------------------------------------------
 Center     Atomic      Atomic             Coordinates (Angstroms)
 Number     Number       Type             X           Y           Z
 ---------------------------------------------------------------------
      1          6           0       -1.346377   -0.060108    0.000151
      2          6           0        0.202110    0.002068   -0.001243
      3          1           0       -1.702832   -1.094362    0.000614
      4          1           0       -1.731829    0.463772   -0.882006
      5          1           0       -1.730286    0.464027    0.882833
      6          8           0        0.813848   -1.110682    0.000321
      7          8           0        0.689970    1.175032    0.000318
 ---------------------------------------------------------------------
 Rotational constants (GHZ):     11.2167440      9.9969936      5.4653418
 Leave Link  202 at Wed May 15 16:25:07 2019, MaxMem=    33554432 cpu:         0.0
 (Enter /opt/g09/l301.exe)
 General basis read from cards:  (5D, 7F)
 Centers:       1      2
 S 5 1.00
     Exponent=  5.2406353000D+03 Coefficients=  9.3700000000D-04
     Exponent=  7.8220480000D+02 Coefficients=  7.2280000000D-03
     Exponent=  1.7835083000D+02 Coefficients=  3.6344000000D-02
     Exponent=  5.0815942000D+01 Coefficients=  1.3060000000D-01
     Exponent=  1.6823562000D+01 Coefficients=  3.1893100000D-01
 S 2 1.00
     Exponent=  6.1757760000D+00 Coefficients=  4.3874200000D-01
     Exponent=  2.4180490000D+00 Coefficients=  2.1497400000D-01
 S 1 1.00
     Exponent=  5.1190000000D-01 Coefficients=  1.0000000000D+00
 S 1 1.00
     Exponent=  1.5659000000D-01 Coefficients=  1.0000000000D+00
 S 1 1.00
     Exponent=  4.7900000000D-02 Coefficients=  1.0000000000D+00
 P 4 1.00
     Exponent=  1.8841800000D+01 Coefficients=  1.3887000000D-02
     Exponent=  4.1592400000D+00 Coefficients=  8.6279000000D-02
     Exponent=  1.2067100000D+00 Coefficients=  2.8874400000D-01
     Exponent=  3.8554000000D-01 Coefficients=  4.9941100000D-01
 P 1 1.00
     Exponent=  1.2194000000D-01 Coefficients=  1.0000000000D+00
 P 1 1.00
     Exponent=  3.8568000000D-02 Coefficients=  1.0000000000D+00
 D 2 1.00
     Exponent=  1.2067000000D+00 Coefficients=  2.6285000000D-01
     Exponent=  3.8550000000D-01 Coefficients=  8.0430000000D-01
 D 2 1.00
     Exponent=  1.2190000000D-01 Coefficients=  6.5350000000D-01
     Exponent=  3.8600000000D-02 Coefficients=  8.6360000000D-01
 ****
 Centers:       3      4      5
 S 4 1.00
     Exponent=  3.3865014000D+01 Coefficients=  6.0680000000D-03
     Exponent=  5.0947880000D+00 Coefficients=  4.5316000000D-02
     Exponent=  1.1587860000D+00 Coefficients=  2.0284600000D-01
     Exponent=  3.2584000000D-01 Coefficients=  5.0370900000D-01
 S 1 1.00
     Exponent=  1.0274100000D-01 Coefficients=  1.0000000000D+00
 S 1 1.00
     Exponent=  3.2400000000D-02 Coefficients=  1.0000000000D+00
 P 2 1.00
     Exponent=  1.1588000000D+00 Coefficients=  1.8844000000D-01
     Exponent=  3.2580000000D-01 Coefficients=  8.8242000000D-01
 P 2 1.00
     Exponent=  1.0270000000D-01 Coefficients=  1.1780000000D-01
     Exponent=  3.2400000000D-02 Coefficients=  4.2000000000D-03
 ****
 Centers:       6      7
 S 5 1.00
     Exponent=  1.0662285000D+04 Coefficients=  7.9900000000D-04
     Exponent=  1.5997097000D+03 Coefficients=  6.1530000000D-03
     Exponent=  3.6472526000D+02 Coefficients=  3.1157000000D-02
     Exponent=  1.0365179000D+02 Coefficients=  1.1559600000D-01
     Exponent=  3.3905805000D+01 Coefficients=  3.0155200000D-01
 S 2 1.00
     Exponent=  1.2287469000D+01 Coefficients=  4.4487000000D-01
     Exponent=  4.7568050000D+00 Coefficients=  2.4317200000D-01
 S 1 1.00
     Exponent=  1.0042710000D+00 Coefficients=  1.0000000000D+00
 S 1 1.00
     Exponent=  3.0068600000D-01 Coefficients=  1.0000000000D+00
 S 1 1.00
     Exponent=  9.0030000000D-02 Coefficients=  1.0000000000D+00
 P 4 1.00
     Exponent=  3.4856463000D+01 Coefficients=  1.5648000000D-02
     Exponent=  7.8431310000D+00 Coefficients=  9.8197000000D-02
     Exponent=  2.3062490000D+00 Coefficients=  3.0776800000D-01
     Exponent=  7.2316400000D-01 Coefficients=  4.9247000000D-01
 P 1 1.00
     Exponent=  2.1488200000D-01 Coefficients=  1.0000000000D+00
 P 1 1.00
     Exponent=  6.3850000000D-02 Coefficients=  1.0000000000D+00
 D 2 1.00
     Exponent=  2.3062000000D+00 Coefficients=  2.0270000000D-01
     Exponent=  7.2320000000D-01 Coefficients=  5.7910000000D-01
 D 2 1.00
     Exponent=  2.1490000000D-01 Coefficients=  7.8545000000D-01
     Exponent=  6.3900000000D-02 Coefficients=  5.3387000000D-01
 ****
 Ernie: Thresh=  0.10000D-02 Tol=  0.10000D-05 Strict=F.
 The following finite field(s) will be applied:
 An electric field of             -0.0008  0.0000  0.0000
 In input orientation:  3.73336827D-04  7.07544208D-04 -8.98163282D-07
 There are   131 symmetry adapted cartesian basis functions of A   symmetry.
 There are   123 symmetry adapted basis functions of A   symmetry.
   123 basis functions,   262 primitive gaussians,   131 cartesian basis functions
    16 alpha electrons       16 beta electrons
       nuclear repulsion energy       111.1233895856 Hartrees.
 IExCor= 4336 DFT=T Ex+Corr=M062X ExCW=0 ScaHFX=  0.540000
 ScaDFX=  1.000000  1.000000  1.000000  1.000000 ScalE2=  1.000000  1.000000
 IRadAn=      0 IRanWt=     -1 IRanGd=            0 ICorTp=0 IEmpDi=  4
 NAtoms=    7 NActive=    7 NUniq=    7 SFac= 1.00D+00 NAtFMM=   60 NAOKFM=F Big=F
 Integral buffers will be    131072 words long.
 Raffenetti 2 integral format.
 Two-electron integral symmetry is turned on.
 Leave Link  301 at Wed May 15 16:25:07 2019, MaxMem=    33554432 cpu:         0.2
 (Enter /opt/g09/l302.exe)
 NPDir=0 NMtPBC=     1 NCelOv=     1 NCel=       1 NClECP=     1 NCelD=      1
         NCelK=      1 NCelE2=     1 NClLst=     1 CellRange=     0.0.
 One-electron integrals computed using PRISM.
 NBasis=   123 RedAO= T EigKep=  7.45D-05  NBF=   123
 NBsUse=   123 1.00D-06 EigRej= -1.00D+00 NBFU=   123
 Precomputing XC quadrature grid using
 IXCGrd= 4 IRadAn=           0 IRanWt=          -1 IRanGd=           0 AccXCQ= 0.00D+00.
 Generated NRdTot=       0 NPtTot=           0 NUsed=           0 NTot=          32
 NSgBfM=   130   131   131   131   131 MxSgAt=     7 MxSgA2=     7.
 Leave Link  302 at Wed May 15 16:25:07 2019, MaxMem=    33554432 cpu:         0.4
 (Enter /opt/g09/l303.exe)
 DipDrv:  MaxL=1.
 The nuclear repulsion energy is now       111.1233895856 hartrees.
 Leave Link  303 at Wed May 15 16:25:07 2019, MaxMem=    33554432 cpu:         0.1
 (Enter /opt/g09/l401.exe)
 ExpMin= 3.24D-02 ExpMax= 1.07D+04 ExpMxC= 1.60D+03 IAcc=3 IRadAn=         5 AccDes= 0.00D+00
 Harris functional with IExCor= 1009 and IRadAn=       5 diagonalized for initial guess.
 HarFok:  IExCor= 1009 AccDes= 0.00D+00 IRadAn=         5 IDoV= 1 UseB2=F ITyADJ=14
 ICtDFT=  3500011 ScaDFX=  1.000000  1.000000  1.000000  1.000000
 FoFCou: FMM=F IPFlag=           0 FMFlag=      100000 FMFlg1=           0
         NFxFlg=           0 DoJE=T BraDBF=F KetDBF=T FulRan=T
         wScrn=  0.000000 ICntrl=     500 IOpCl=  0 I1Cent=   200000004 NGrid=           0
         NMat0=    1 NMatS0=      1 NMatT0=    0 NMatD0=    1 NMtDS0=    0 NMtDT0=    0
 Petite list used in FoFCou.
 Harris En= -228.586871550739    
 JPrj=0 DoOrth=F DoCkMO=F.
 Leave Link  401 at Wed May 15 16:25:08 2019, MaxMem=    33554432 cpu:         2.1
 (Enter /opt/g09/l502.exe)
 Closed shell SCF:
 Using DIIS extrapolation, IDIIS=  1040.
 Integral symmetry usage will be decided dynamically.
 Keep R1 ints in memory in canonical form, NReq=31291442.
 IVT=     1059773 IEndB=     1059773 NGot=    33554432 MDV=     3412909
 LenX=     3412909 LenY=     3395307
 Requested convergence on RMS density matrix=1.00D-08 within1000 cycles.
 Requested convergence on MAX density matrix=1.00D-06.
 Requested convergence on             energy=1.00D-06.
 No special actions if energy rises.
 FoFCou: FMM=F IPFlag=           0 FMFlag=           0 FMFlg1=           0
         NFxFlg=           0 DoJE=F BraDBF=F KetDBF=F FulRan=T
         wScrn=  0.000000 ICntrl=     600 IOpCl=  0 I1Cent=           0 NGrid=           0
         NMat0=    1 NMatS0=   7626 NMatT0=    0 NMatD0=    1 NMtDS0=    0 NMtDT0=    0
 Symmetry not used in FoFCou.
 CoulSu:  requested number of processors reduced to:   3 ShMem   1 Linda.

 Cycle   1  Pass 1  IDiag  1:
 CalDSu:  requested number of processors reduced to:   3 ShMem   1 Linda.
 E= -228.287980119115    
 DIIS: error= 2.78D-02 at cycle   1 NSaved=   1.
 NSaved= 1 IEnMin= 1 EnMin= -228.287980119115     IErMin= 1 ErrMin= 2.78D-02
 ErrMax= 2.78D-02  0.00D+00 EMaxC= 1.00D-01 BMatC= 2.46D-01 BMatP= 2.46D-01
 IDIUse=3 WtCom= 7.22D-01 WtEn= 2.78D-01
 Coeff-Com:  0.100D+01
 Coeff-En:   0.100D+01
 Coeff:      0.100D+01
 Gap=     0.314 Goal=   None    Shift=    0.000
 GapD=    0.314 DampG=1.000 DampE=0.500 DampFc=0.5000 IDamp=-1.
 Damping current iteration by 5.00D-01
 RMSDP=2.25D-02 MaxDP=1.15D+00              OVMax= 3.01D-01

 Cycle   2  Pass 1  IDiag  1:
 CalDSu:  requested number of processors reduced to:   3 ShMem   1 Linda.
 E= -228.373213428068     Delta-E=       -0.085233308953 Rises=F Damp=T
 DIIS: error= 1.11D-02 at cycle   2 NSaved=   2.
 NSaved= 2 IEnMin= 2 EnMin= -228.373213428068     IErMin= 2 ErrMin= 1.11D-02
 ErrMax= 1.11D-02  0.00D+00 EMaxC= 1.00D-01 BMatC= 1.57D-02 BMatP= 2.46D-01
 IDIUse=3 WtCom= 8.89D-01 WtEn= 1.11D-01
 Coeff-Com:  0.764D-01 0.924D+00
 Coeff-En:   0.150D+00 0.850D+00
 Coeff:      0.846D-01 0.915D+00
 Gap=     0.223 Goal=   None    Shift=    0.000
 RMSDP=9.03D-03 MaxDP=5.57D-01 DE=-8.52D-02 OVMax= 2.03D-01

 Cycle   3  Pass 1  IDiag  1:
 CalDSu:  requested number of processors reduced to:   3 ShMem   1 Linda.
 E= -228.492491166402     Delta-E=       -0.119277738335 Rises=F Damp=F
 DIIS: error= 4.64D-03 at cycle   3 NSaved=   3.
 NSaved= 3 IEnMin= 3 EnMin= -228.492491166402     IErMin= 3 ErrMin= 4.64D-03
 ErrMax= 4.64D-03  0.00D+00 EMaxC= 1.00D-01 BMatC= 5.32D-03 BMatP= 1.57D-02
 IDIUse=3 WtCom= 9.54D-01 WtEn= 4.64D-02
 Coeff-Com: -0.242D-01 0.327D+00 0.697D+00
 Coeff-En:   0.000D+00 0.000D+00 0.100D+01
 Coeff:     -0.231D-01 0.312D+00 0.711D+00
 Gap=     0.221 Goal=   None    Shift=    0.000
 RMSDP=1.72D-03 MaxDP=3.65D-02 DE=-1.19D-01 OVMax= 2.43D-02

 Cycle   4  Pass 1  IDiag  1:
 CalDSu:  requested number of processors reduced to:   3 ShMem   1 Linda.
 E= -228.496087183663     Delta-E=       -0.003596017260 Rises=F Damp=F
 DIIS: error= 2.17D-03 at cycle   4 NSaved=   4.
 NSaved= 4 IEnMin= 4 EnMin= -228.496087183663     IErMin= 4 ErrMin= 2.17D-03
 ErrMax= 2.17D-03  0.00D+00 EMaxC= 1.00D-01 BMatC= 9.64D-04 BMatP= 5.32D-03
 IDIUse=3 WtCom= 9.78D-01 WtEn= 2.17D-02
 Coeff-Com: -0.191D-01 0.277D-01 0.326D+00 0.666D+00
 Coeff-En:   0.000D+00 0.000D+00 0.120D+00 0.880D+00
 Coeff:     -0.187D-01 0.271D-01 0.321D+00 0.670D+00
 Gap=     0.213 Goal=   None    Shift=    0.000
 RMSDP=7.53D-04 MaxDP=1.56D-02 DE=-3.60D-03 OVMax= 8.33D-03

 Cycle   5  Pass 1  IDiag  1:
 CalDSu:  requested number of processors reduced to:   3 ShMem   1 Linda.
 E= -228.497015370790     Delta-E=       -0.000928187127 Rises=F Damp=F
 DIIS: error= 1.74D-04 at cycle   5 NSaved=   5.
 NSaved= 5 IEnMin= 5 EnMin= -228.497015370790     IErMin= 5 ErrMin= 1.74D-04
 ErrMax= 1.74D-04  0.00D+00 EMaxC= 1.00D-01 BMatC= 6.27D-06 BMatP= 9.64D-04
 IDIUse=3 WtCom= 9.98D-01 WtEn= 1.74D-03
 Coeff-Com: -0.263D-02 0.162D-02 0.403D-01 0.117D+00 0.843D+00
 Coeff-En:   0.000D+00 0.000D+00 0.000D+00 0.000D+00 0.100D+01
 Coeff:     -0.263D-02 0.162D-02 0.402D-01 0.117D+00 0.844D+00
 Gap=     0.214 Goal=   None    Shift=    0.000
 RMSDP=1.26D-04 MaxDP=3.69D-03 DE=-9.28D-04 OVMax= 1.90D-03

 Cycle   6  Pass 1  IDiag  1:
 CalDSu:  requested number of processors reduced to:   3 ShMem   1 Linda.
 E= -228.497024044989     Delta-E=       -0.000008674199 Rises=F Damp=F
 DIIS: error= 8.13D-05 at cycle   6 NSaved=   6.
 NSaved= 6 IEnMin= 6 EnMin= -228.497024044989     IErMin= 6 ErrMin= 8.13D-05
 ErrMax= 8.13D-05  0.00D+00 EMaxC= 1.00D-01 BMatC= 1.74D-06 BMatP= 6.27D-06
 IDIUse=1 WtCom= 1.00D+00 WtEn= 0.00D+00
 Coeff-Com:  0.163D-02-0.359D-02-0.253D-01-0.357D-01 0.328D+00 0.734D+00
 Coeff:      0.163D-02-0.359D-02-0.253D-01-0.357D-01 0.328D+00 0.734D+00
 Gap=     0.213 Goal=   None    Shift=    0.000
 RMSDP=5.01D-05 MaxDP=1.46D-03 DE=-8.67D-06 OVMax= 6.07D-04

 Cycle   7  Pass 1  IDiag  1:
 CalDSu:  requested number of processors reduced to:   3 ShMem   1 Linda.
 E= -228.497026143496     Delta-E=       -0.000002098507 Rises=F Damp=F
 DIIS: error= 1.47D-05 at cycle   7 NSaved=   7.
 NSaved= 7 IEnMin= 7 EnMin= -228.497026143496     IErMin= 7 ErrMin= 1.47D-05
 ErrMax= 1.47D-05  0.00D+00 EMaxC= 1.00D-01 BMatC= 5.96D-08 BMatP= 1.74D-06
 IDIUse=1 WtCom= 1.00D+00 WtEn= 0.00D+00
 Coeff-Com:  0.521D-03-0.879D-03-0.759D-02-0.146D-01 0.103D-01 0.134D+00
 Coeff-Com:  0.878D+00
 Coeff:      0.521D-03-0.879D-03-0.759D-02-0.146D-01 0.103D-01 0.134D+00
 Coeff:      0.878D+00
 Gap=     0.213 Goal=   None    Shift=    0.000
 RMSDP=1.16D-05 MaxDP=3.15D-04 DE=-2.10D-06 OVMax= 2.38D-04

 Cycle   8  Pass 1  IDiag  1:
 CalDSu:  requested number of processors reduced to:   3 ShMem   1 Linda.
 E= -228.497026211143     Delta-E=       -0.000000067647 Rises=F Damp=F
 DIIS: error= 1.85D-05 at cycle   8 NSaved=   8.
 NSaved= 8 IEnMin= 8 EnMin= -228.497026211143     IErMin= 7 ErrMin= 1.47D-05
 ErrMax= 1.85D-05  0.00D+00 EMaxC= 1.00D-01 BMatC= 5.38D-08 BMatP= 5.96D-08
 IDIUse=1 WtCom= 1.00D+00 WtEn= 0.00D+00
 Coeff-Com:  0.131D-03-0.147D-03-0.175D-02-0.477D-02-0.264D-01 0.194D-04
 Coeff-Com:  0.542D+00 0.491D+00
 Coeff:      0.131D-03-0.147D-03-0.175D-02-0.477D-02-0.264D-01 0.194D-04
 Coeff:      0.542D+00 0.491D+00
 Gap=     0.213 Goal=   None    Shift=    0.000
 RMSDP=3.43D-06 MaxDP=6.78D-05 DE=-6.76D-08 OVMax= 8.73D-05

 Cycle   9  Pass 1  IDiag  1:
 CalDSu:  requested number of processors reduced to:   3 ShMem   1 Linda.
 E= -228.497026254751     Delta-E=       -0.000000043608 Rises=F Damp=F
 DIIS: error= 2.34D-06 at cycle   9 NSaved=   9.
 NSaved= 9 IEnMin= 9 EnMin= -228.497026254751     IErMin= 9 ErrMin= 2.34D-06
 ErrMax= 2.34D-06  0.00D+00 EMaxC= 1.00D-01 BMatC= 1.68D-09 BMatP= 5.38D-08
 IDIUse=1 WtCom= 1.00D+00 WtEn= 0.00D+00
 Coeff-Com: -0.591D-04 0.102D-03 0.860D-03 0.112D-02-0.804D-02-0.266D-01
 Coeff-Com:  0.872D-02 0.144D+00 0.880D+00
 Coeff:     -0.591D-04 0.102D-03 0.860D-03 0.112D-02-0.804D-02-0.266D-01
 Coeff:      0.872D-02 0.144D+00 0.880D+00
 Gap=     0.213 Goal=   None    Shift=    0.000
 RMSDP=1.92D-06 MaxDP=4.59D-05 DE=-4.36D-08 OVMax= 2.04D-05

 Cycle  10  Pass 1  IDiag  1:
 CalDSu:  requested number of processors reduced to:   3 ShMem   1 Linda.
 E= -228.497026256775     Delta-E=       -0.000000002023 Rises=F Damp=F
 DIIS: error= 3.83D-07 at cycle  10 NSaved=  10.
 NSaved=10 IEnMin=10 EnMin= -228.497026256775     IErMin=10 ErrMin= 3.83D-07
 ErrMax= 3.83D-07  0.00D+00 EMaxC= 1.00D-01 BMatC= 2.90D-11 BMatP= 1.68D-09
 IDIUse=1 WtCom= 1.00D+00 WtEn= 0.00D+00
 Coeff-Com: -0.108D-04 0.185D-04 0.154D-03 0.249D-03 0.573D-03-0.326D-02
 Coeff-Com: -0.202D-01-0.829D-02 0.421D-01 0.989D+00
 Coeff:     -0.108D-04 0.185D-04 0.154D-03 0.249D-03 0.573D-03-0.326D-02
 Coeff:     -0.202D-01-0.829D-02 0.421D-01 0.989D+00
 Gap=     0.213 Goal=   None    Shift=    0.000
 RMSDP=3.19D-07 MaxDP=7.99D-06 DE=-2.02D-09 OVMax= 4.12D-06

 Cycle  11  Pass 1  IDiag  1:
 CalDSu:  requested number of processors reduced to:   3 ShMem   1 Linda.
 E= -228.497026256831     Delta-E=       -0.000000000056 Rises=F Damp=F
 DIIS: error= 7.23D-08 at cycle  11 NSaved=  11.
 NSaved=11 IEnMin=11 EnMin= -228.497026256831     IErMin=11 ErrMin= 7.23D-08
 ErrMax= 7.23D-08  0.00D+00 EMaxC= 1.00D-01 BMatC= 9.63D-13 BMatP= 2.90D-11
 IDIUse=1 WtCom= 1.00D+00 WtEn= 0.00D+00
 Coeff-Com:  0.254D-05-0.374D-05-0.276D-04-0.431D-04 0.379D-03 0.929D-03
 Coeff-Com: -0.126D-02-0.592D-02-0.360D-01 0.710D-01 0.971D+00
 Coeff:      0.254D-05-0.374D-05-0.276D-04-0.431D-04 0.379D-03 0.929D-03
 Coeff:     -0.126D-02-0.592D-02-0.360D-01 0.710D-01 0.971D+00
 Gap=     0.213 Goal=   None    Shift=    0.000
 RMSDP=7.07D-08 MaxDP=1.45D-06 DE=-5.60D-11 OVMax= 9.20D-07

 Cycle  12  Pass 1  IDiag  1:
 CalDSu:  requested number of processors reduced to:   3 ShMem   1 Linda.
 E= -228.497026256830     Delta-E=        0.000000000000 Rises=F Damp=F
 DIIS: error= 1.09D-08 at cycle  12 NSaved=  12.
 NSaved=12 IEnMin=11 EnMin= -228.497026256831     IErMin=12 ErrMin= 1.09D-08
 ErrMax= 1.09D-08  0.00D+00 EMaxC= 1.00D-01 BMatC= 3.25D-14 BMatP= 9.63D-13
 IDIUse=1 WtCom= 1.00D+00 WtEn= 0.00D+00
 Coeff-Com:  0.237D-06-0.524D-06-0.110D-05-0.118D-05-0.227D-04 0.603D-04
 Coeff-Com:  0.314D-03 0.465D-03 0.102D-02-0.261D-01-0.735D-01 0.110D+01
 Coeff:      0.237D-06-0.524D-06-0.110D-05-0.118D-05-0.227D-04 0.603D-04
 Coeff:      0.314D-03 0.465D-03 0.102D-02-0.261D-01-0.735D-01 0.110D+01
 Gap=     0.213 Goal=   None    Shift=    0.000
 RMSDP=2.05D-08 MaxDP=4.63D-07 DE= 3.41D-13 OVMax= 2.14D-07

 Cycle  13  Pass 1  IDiag  1:
 CalDSu:  requested number of processors reduced to:   3 ShMem   1 Linda.
 E= -228.497026256832     Delta-E=       -0.000000000002 Rises=F Damp=F
 DIIS: error= 2.17D-09 at cycle  13 NSaved=  13.
 NSaved=13 IEnMin=13 EnMin= -228.497026256832     IErMin=13 ErrMin= 2.17D-09
 ErrMax= 2.17D-09  0.00D+00 EMaxC= 1.00D-01 BMatC= 6.39D-16 BMatP= 3.25D-14
 IDIUse=1 WtCom= 1.00D+00 WtEn= 0.00D+00
 Coeff-Com: -0.555D-07 0.667D-07 0.651D-06 0.102D-05-0.887D-05-0.227D-04
 Coeff-Com:  0.141D-04 0.172D-03 0.924D-03-0.125D-02-0.239D-01 0.176D-02
 Coeff-Com:  0.102D+01
 Coeff:     -0.555D-07 0.667D-07 0.651D-06 0.102D-05-0.887D-05-0.227D-04
 Coeff:      0.141D-04 0.172D-03 0.924D-03-0.125D-02-0.239D-01 0.176D-02
 Coeff:      0.102D+01
 Gap=     0.213 Goal=   None    Shift=    0.000
 RMSDP=2.40D-09 MaxDP=4.42D-08 DE=-1.93D-12 OVMax= 3.80D-08

 SCF Done:  E(RM062X) =  -228.497026257     A.U. after   13 cycles
            NFock= 13  Conv=0.24D-08     -V/T= 2.0060
 KE= 2.271385241189D+02 PE=-7.665078971069D+02 EE= 1.997489571456D+02
 Leave Link  502 at Wed May 15 16:25:15 2019, MaxMem=    33554432 cpu:        21.4
 (Enter /opt/g09/l601.exe)
 Copying SCF densities to generalized density rwf, IOpCl= 0 IROHF=0.

 **********************************************************************

            Population analysis using the SCF density.

 **********************************************************************

 Orbital symmetries:
       Occupied  (A) (A) (A) (A) (A) (A) (A) (A) (A) (A) (A) (A)
                 (A) (A) (A) (A)
       Virtual   (A) (A) (A) (A) (A) (A) (A) (A) (A) (A) (A) (A)
                 (A) (A) (A) (A) (A) (A) (A) (A) (A) (A) (A) (A)
                 (A) (A) (A) (A) (A) (A) (A) (A) (A) (A) (A) (A)
                 (A) (A) (A) (A) (A) (A) (A) (A) (A) (A) (A) (A)
                 (A) (A) (A) (A) (A) (A) (A) (A) (A) (A) (A) (A)
                 (A) (A) (A) (A) (A) (A) (A) (A) (A) (A) (A) (A)
                 (A) (A) (A) (A) (A) (A) (A) (A) (A) (A) (A) (A)
                 (A) (A) (A) (A) (A) (A) (A) (A) (A) (A) (A) (A)
                 (A) (A) (A) (A) (A) (A) (A) (A) (A) (A) (A)
 The electronic state is 1-A.
 Alpha  occ. eigenvalues --  -19.37624 -19.37396 -10.44059 -10.36920  -0.93373
 Alpha  occ. eigenvalues --   -0.84398  -0.62849  -0.38889  -0.31911  -0.31314
 Alpha  occ. eigenvalues --   -0.30341  -0.25974  -0.23163  -0.11340  -0.10828
 Alpha  occ. eigenvalues --   -0.10739
 Alpha virt. eigenvalues --    0.10555   0.11923   0.12344   0.15445   0.18414
 Alpha virt. eigenvalues --    0.18955   0.19274   0.19802   0.19972   0.23871
 Alpha virt. eigenvalues --    0.24559   0.25442   0.26207   0.28379   0.30494
 Alpha virt. eigenvalues --    0.32739   0.33622   0.34297   0.35548   0.36456
 Alpha virt. eigenvalues --    0.37596   0.39031   0.39657   0.39691   0.43062
 Alpha virt. eigenvalues --    0.44448   0.46300   0.47227   0.47325   0.48358
 Alpha virt. eigenvalues --    0.48381   0.49095   0.49099   0.50850   0.50915
 Alpha virt. eigenvalues --    0.52951   0.55494   0.55842   0.58833   0.59954
 Alpha virt. eigenvalues --    0.61865   0.63853   0.68194   0.71923   0.74250
 Alpha virt. eigenvalues --    0.75991   0.77008   0.80432   0.81287   0.82531
 Alpha virt. eigenvalues --    0.83683   0.84942   0.93092   0.93626   0.94549
 Alpha virt. eigenvalues --    0.97997   0.98717   1.00763   1.01796   1.02517
 Alpha virt. eigenvalues --    1.06461   1.07730   1.08500   1.13267   1.17008
 Alpha virt. eigenvalues --    1.19278   1.23076   1.27326   1.29412   1.39401
 Alpha virt. eigenvalues --    1.39446   1.44702   1.45204   1.53323   1.56716
 Alpha virt. eigenvalues --    1.60760   1.62859   1.67935   1.68636   1.74322
 Alpha virt. eigenvalues --    1.77395   1.80019   1.83538   1.99866   2.04486
 Alpha virt. eigenvalues --    2.19744   2.20951   2.28327   2.32422   2.45226
 Alpha virt. eigenvalues --    2.48015   2.54293   2.60336   2.63460   2.68453
 Alpha virt. eigenvalues --    2.73782   2.83270   2.87726   3.15665   3.18765
 Alpha virt. eigenvalues --    3.33450   3.40765   3.54104  21.94344  22.19524
 Alpha virt. eigenvalues --   43.05473  43.10533
          Condensed to atoms (all electrons):
               1          2          3          4          5          6
     1  C    6.821112  -1.876831  -1.192268  -0.819279  -0.815061   0.377082
     2  C   -1.876831   7.850121   0.763291   0.296460   0.295506  -0.228533
     3  H   -1.192268   0.763291   4.341489  -0.961621  -0.961964  -0.085456
     4  H   -0.819279   0.296460  -0.961621   4.079544  -0.700601  -0.047955
     5  H   -0.815061   0.295506  -0.961964  -0.700601   4.076595  -0.048305
     6  O    0.377082  -0.228533  -0.085456  -0.047955  -0.048305   8.468240
     7  O    0.295305  -0.128522  -0.052751  -0.027615  -0.027615  -0.089161
               7
     1  C    0.295305
     2  C   -0.128522
     3  H   -0.052751
     4  H   -0.027615
     5  H   -0.027615
     6  O   -0.089161
     7  O    8.434686
 Mulliken charges:
               1
     1  C    3.209941
     2  C   -0.971492
     3  H   -0.850721
     4  H   -0.818932
     5  H   -0.818556
     6  O   -0.345911
     7  O   -0.404329
 Sum of Mulliken charges =  -1.00000
 Mulliken charges with hydrogens summed into heavy atoms:
               1
     1  C    0.721732
     2  C   -0.971492
     6  O   -0.345911
     7  O   -0.404329
 Electronic spatial extent (au):  <R**2>=            260.7685
 Charge=             -1.0000 electrons
 Dipole moment (field-independent basis, Debye):
    X=             -3.7655    Y=             -0.1919    Z=             -0.0021  Tot=              3.7704
 Quadrupole moment (field-independent basis, Debye-Ang):
   XX=            -32.6759   YY=            -36.4402   ZZ=            -25.8890
   XY=              0.2027   XZ=             -0.0029   YZ=              0.0003
 Traceless Quadrupole moment (field-independent basis, Debye-Ang):
   XX=             -1.0076   YY=             -4.7718   ZZ=              5.7794
   XY=              0.2027   XZ=             -0.0029   YZ=              0.0003
 Octapole moment (field-independent basis, Debye-Ang**2):
  XXX=              4.7274  YYY=             -1.3205  ZZZ=              0.0045  XYY=             -5.7942
  XXY=              0.7910  XXZ=              0.0023  XZZ=              0.9321  YZZ=              0.3926
  YYZ=              0.0046  XYZ=             -0.0005
 Hexadecapole moment (field-independent basis, Debye-Ang**3):
 XXXX=           -209.5123 YYYY=           -161.6647 ZZZZ=            -37.9754 XXXY=             -0.3806
 XXXZ=             -0.0059 YYYX=              0.8373 YYYZ=              0.0006 ZZZX=             -0.0014
 ZZZY=              0.0019 XXYY=            -61.1094 XXZZ=            -38.0823 YYZZ=            -31.6277
 XXYZ=              0.0000 YYXZ=              0.0010 ZZXY=             -0.7066
 N-N= 1.111233895856D+02 E-N=-7.665078971482D+02  KE= 2.271385241189D+02
 No NMR shielding tensors so no spin-rotation constants.
 Leave Link  601 at Wed May 15 16:25:15 2019, MaxMem=    33554432 cpu:         0.4
 (Enter /opt/g09/l9999.exe)
 1\1\GINC-RHO\SP\RM062X\Gen\C2H3O2(1-)\ESTHER\15-May-2019\0\\#p M062X/G
 en SCF=(MAXCYCLE=1000) field=x-8\\polar\\-1,1\C,0,0.6131460756,1.29681
 75747,-0.0014086521\C,0,-0.0544987649,-0.1017278937,-0.0010885645\H,0,
 -0.1352324996,2.0947358178,-0.0009365176\H,0,1.2555897484,1.392531006,
 -0.8842054401\H,0,1.2566377172,1.3924730671,0.880634403\O,0,-1.3241280
 581,-0.1234767658,0.0016022929\O,0,0.7552370717,-1.0805934429,0.000555
 232\\Version=ES64L-G09RevD.01\State=1-A\HF=-228.4970263\RMSD=2.398e-09
 \Dipole=0.6245773,1.3454888,-0.002456\Quadrupole=-3.0626324,-1.2341976
 ,4.29683,1.0700716,0.0067798,0.0053342\PG=C01 [X(C2H3O2)]\\@


 IT IS THE BEHAVIOR AND DISTRIBUTION OF THE ELECTRONS 
 AROUND THE NUCLEUS THAT GIVES THE FUNDAMENTAL 
 CHARACTER OF AN ATOM:  IT MUST BE THE SAME FOR MOLECULES.

                               -- C. A. COULSON, 1951
 Job cpu time:       0 days  0 hours  0 minutes 25.1 seconds.
 File lengths (MBytes):  RWF=      8 Int=      0 D2E=      0 Chk=      2 Scr=      1
 Normal termination of Gaussian 09 at Wed May 15 16:25:15 2019.
