polar                                                                   
SP        RM062X                                                      Gen                 
Number of atoms                            I                7
Info1-9                                    I   N=           9
          98          97           0           0           0         110
           1          18        -502
Charge                                     I               -1
Multiplicity                               I                1
Number of electrons                        I               32
Number of alpha electrons                  I               16
Number of beta electrons                   I               16
Number of basis functions                  I              123
Number of independent functions            I              123
Number of point charges in /Mol/           I                0
Number of translation vectors              I                0
Atomic numbers                             I   N=           7
           6           6           1           1           1           8
           8
Nuclear charges                            R   N=           7
  6.00000000E+00  6.00000000E+00  1.00000000E+00  1.00000000E+00  1.00000000E+00
  8.00000000E+00  8.00000000E+00
Current cartesian coordinates              R   N=          21
 -2.54428286E+00 -1.13586773E-01  2.85538053E-04  3.81933111E-01  3.90875389E-03
 -2.34836320E-03 -3.21788690E+00 -2.06804530E+00  1.16054731E-03 -3.27268314E+00
  8.76401845E-01 -1.66675025E+00 -3.26976620E+00  8.76884631E-01  1.66831300E+00
  1.53794963E+00 -2.09888477E+00  6.06601768E-04  1.30385471E+00  2.22048813E+00
  6.00104543E-04
Force Field                                I                0
Int Atom Types                             I   N=           7
           0           0           0           0           0           0
           0
MM charges                                 R   N=           7
  0.00000000E+00  0.00000000E+00  0.00000000E+00  0.00000000E+00  0.00000000E+00
  0.00000000E+00  0.00000000E+00
Integer atomic weights                     I   N=           7
          12          12           1           1           1          16
          16
Real atomic weights                        R   N=           7
  1.20000000E+01  1.20000000E+01  1.00782504E+00  1.00782504E+00  1.00782504E+00
  1.59949146E+01  1.59949146E+01
Atom fragment info                         I   N=           7
           0           0           0           0           0           0
           0
Atom residue num                           I   N=           7
           0           0           0           0           0           0
           0
Nuclear spins                              I   N=           7
           0           0           1           1           1           0
           0
Nuclear ZEff                               R   N=           7
 -3.60000000E+00 -3.60000000E+00 -1.00000000E+00 -1.00000000E+00 -1.00000000E+00
 -5.60000000E+00 -5.60000000E+00
Nuclear ZNuc                               R   N=           7
  6.00000000E+00  6.00000000E+00  1.00000000E+00  1.00000000E+00  1.00000000E+00
  8.00000000E+00  8.00000000E+00
Nuclear QMom                               R   N=           7
  0.00000000E+00  0.00000000E+00  0.00000000E+00  0.00000000E+00  0.00000000E+00
  0.00000000E+00  0.00000000E+00
Nuclear GFac                               R   N=           7
  0.00000000E+00  0.00000000E+00  2.79284600E+00  2.79284600E+00  2.79284600E+00
  0.00000000E+00  0.00000000E+00
MicOpt                                     I   N=           7
          -1          -1          -1          -1          -1          -1
          -1
Number of contracted shells                I               55
Number of primitive shells                 I              110
Pure/Cartesian d shells                    I                0
Pure/Cartesian f shells                    I                0
Highest angular momentum                   I                2
Largest degree of contraction              I                5
Shell types                                I   N=          55
           0           0           0           0           0           1
           1           1          -2          -2           0           0
           0           0           0           1           1           1
          -2          -2           0           0           0           1
           1           0           0           0           1           1
           0           0           0           1           1           0
           0           0           0           0           1           1
           1          -2          -2           0           0           0
           0           0           1           1           1          -2
          -2
Number of primitives per shell             I   N=          55
           5           2           1           1           1           4
           1           1           2           2           5           2
           1           1           1           4           1           1
           2           2           4           1           1           2
           2           4           1           1           2           2
           4           1           1           2           2           5
           2           1           1           1           4           1
           1           2           2           5           2           1
           1           1           4           1           1           2
           2
Shell to atom map                          I   N=          55
           1           1           1           1           1           1
           1           1           1           1           2           2
           2           2           2           2           2           2
           2           2           3           3           3           3
           3           4           4           4           4           4
           5           5           5           5           5           6
           6           6           6           6           6           6
           6           6           6           7           7           7
           7           7           7           7           7           7
           7
Primitive exponents                        R   N=         110
  5.24063530E+03  7.82204800E+02  1.78350830E+02  5.08159420E+01  1.68235620E+01
  6.17577600E+00  2.41804900E+00  5.11900000E-01  1.56590000E-01  4.79000000E-02
  1.88418000E+01  4.15924000E+00  1.20671000E+00  3.85540000E-01  1.21940000E-01
  3.85680000E-02  1.20670000E+00  3.85500000E-01  1.21900000E-01  3.86000000E-02
  5.24063530E+03  7.82204800E+02  1.78350830E+02  5.08159420E+01  1.68235620E+01
  6.17577600E+00  2.41804900E+00  5.11900000E-01  1.56590000E-01  4.79000000E-02
  1.88418000E+01  4.15924000E+00  1.20671000E+00  3.85540000E-01  1.21940000E-01
  3.85680000E-02  1.20670000E+00  3.85500000E-01  1.21900000E-01  3.86000000E-02
  3.38650140E+01  5.09478800E+00  1.15878600E+00  3.25840000E-01  1.02741000E-01
  3.24000000E-02  1.15880000E+00  3.25800000E-01  1.02700000E-01  3.24000000E-02
  3.38650140E+01  5.09478800E+00  1.15878600E+00  3.25840000E-01  1.02741000E-01
  3.24000000E-02  1.15880000E+00  3.25800000E-01  1.02700000E-01  3.24000000E-02
  3.38650140E+01  5.09478800E+00  1.15878600E+00  3.25840000E-01  1.02741000E-01
  3.24000000E-02  1.15880000E+00  3.25800000E-01  1.02700000E-01  3.24000000E-02
  1.06622850E+04  1.59970970E+03  3.64725260E+02  1.03651790E+02  3.39058050E+01
  1.22874690E+01  4.75680500E+00  1.00427100E+00  3.00686000E-01  9.00300000E-02
  3.48564630E+01  7.84313100E+00  2.30624900E+00  7.23164000E-01  2.14882000E-01
  6.38500000E-02  2.30620000E+00  7.23200000E-01  2.14900000E-01  6.39000000E-02
  1.06622850E+04  1.59970970E+03  3.64725260E+02  1.03651790E+02  3.39058050E+01
  1.22874690E+01  4.75680500E+00  1.00427100E+00  3.00686000E-01  9.00300000E-02
  3.48564630E+01  7.84313100E+00  2.30624900E+00  7.23164000E-01  2.14882000E-01
  6.38500000E-02  2.30620000E+00  7.23200000E-01  2.14900000E-01  6.39000000E-02
Contraction coefficients                   R   N=         110
  2.06539993E-03  1.59324554E-02  8.01119476E-02  2.87877514E-01  7.03009673E-01
  6.94067370E-01  3.40077856E-01  1.00000000E+00  1.00000000E+00  1.00000000E+00
  1.80615059E-02  1.12214925E-01  3.75541979E-01  6.49536597E-01  1.00000000E+00
  1.00000000E+00  2.67978866E-01  8.19993920E-01  4.83796365E-01  6.39336711E-01
  2.06539993E-03  1.59324554E-02  8.01119476E-02  2.87877514E-01  7.03009673E-01
  6.94067370E-01  3.40077856E-01  1.00000000E+00  1.00000000E+00  1.00000000E+00
  1.80615059E-02  1.12214925E-01  3.75541979E-01  6.49536597E-01  1.00000000E+00
  1.00000000E+00  2.67978866E-01  8.19993920E-01  4.83796365E-01  6.39336711E-01
  8.76044950E-03  6.54232910E-02  2.92851374E-01  7.27211150E-01  1.00000000E+00
  1.00000000E+00  1.86447366E-01  8.73088966E-01  9.76214574E-01  3.48056130E-02
  8.76044950E-03  6.54232910E-02  2.92851374E-01  7.27211150E-01  1.00000000E+00
  1.00000000E+00  1.86447366E-01  8.73088966E-01  9.76214574E-01  3.48056130E-02
  8.76044950E-03  6.54232910E-02  2.92851374E-01  7.27211150E-01  1.00000000E+00
  1.00000000E+00  1.86447366E-01  8.73088966E-01  9.76214574E-01  3.48056130E-02
  1.90604745E-03  1.46782352E-02  7.43263084E-02  2.75759025E-01  7.19364732E-01
  6.69996511E-01  3.66229217E-01  1.00000000E+00  1.00000000E+00  1.00000000E+00
  1.99439284E-02  1.25155543E-01  3.92261182E-01  6.27670401E-01  1.00000000E+00
  1.00000000E+00  2.83613619E-01  8.10264660E-01  6.73833443E-01  4.58004278E-01
  1.90604745E-03  1.46782352E-02  7.43263084E-02  2.75759025E-01  7.19364732E-01
  6.69996511E-01  3.66229217E-01  1.00000000E+00  1.00000000E+00  1.00000000E+00
  1.99439284E-02  1.25155543E-01  3.92261182E-01  6.27670401E-01  1.00000000E+00
  1.00000000E+00  2.83613619E-01  8.10264660E-01  6.73833443E-01  4.58004278E-01
Coordinates of each shell                  R   N=         165
 -2.54428286E+00 -1.13586773E-01  2.85538053E-04 -2.54428286E+00 -1.13586773E-01
  2.85538053E-04 -2.54428286E+00 -1.13586773E-01  2.85538053E-04 -2.54428286E+00
 -1.13586773E-01  2.85538053E-04 -2.54428286E+00 -1.13586773E-01  2.85538053E-04
 -2.54428286E+00 -1.13586773E-01  2.85538053E-04 -2.54428286E+00 -1.13586773E-01
  2.85538053E-04 -2.54428286E+00 -1.13586773E-01  2.85538053E-04 -2.54428286E+00
 -1.13586773E-01  2.85538053E-04 -2.54428286E+00 -1.13586773E-01  2.85538053E-04
  3.81933111E-01  3.90875389E-03 -2.34836320E-03  3.81933111E-01  3.90875389E-03
 -2.34836320E-03  3.81933111E-01  3.90875389E-03 -2.34836320E-03  3.81933111E-01
  3.90875389E-03 -2.34836320E-03  3.81933111E-01  3.90875389E-03 -2.34836320E-03
  3.81933111E-01  3.90875389E-03 -2.34836320E-03  3.81933111E-01  3.90875389E-03
 -2.34836320E-03  3.81933111E-01  3.90875389E-03 -2.34836320E-03  3.81933111E-01
  3.90875389E-03 -2.34836320E-03  3.81933111E-01  3.90875389E-03 -2.34836320E-03
 -3.21788690E+00 -2.06804530E+00  1.16054731E-03 -3.21788690E+00 -2.06804530E+00
  1.16054731E-03 -3.21788690E+00 -2.06804530E+00  1.16054731E-03 -3.21788690E+00
 -2.06804530E+00  1.16054731E-03 -3.21788690E+00 -2.06804530E+00  1.16054731E-03
 -3.27268314E+00  8.76401845E-01 -1.66675025E+00 -3.27268314E+00  8.76401845E-01
 -1.66675025E+00 -3.27268314E+00  8.76401845E-01 -1.66675025E+00 -3.27268314E+00
  8.76401845E-01 -1.66675025E+00 -3.27268314E+00  8.76401845E-01 -1.66675025E+00
 -3.26976620E+00  8.76884631E-01  1.66831300E+00 -3.26976620E+00  8.76884631E-01
  1.66831300E+00 -3.26976620E+00  8.76884631E-01  1.66831300E+00 -3.26976620E+00
  8.76884631E-01  1.66831300E+00 -3.26976620E+00  8.76884631E-01  1.66831300E+00
  1.53794963E+00 -2.09888477E+00  6.06601768E-04  1.53794963E+00 -2.09888477E+00
  6.06601768E-04  1.53794963E+00 -2.09888477E+00  6.06601768E-04  1.53794963E+00
 -2.09888477E+00  6.06601768E-04  1.53794963E+00 -2.09888477E+00  6.06601768E-04
  1.53794963E+00 -2.09888477E+00  6.06601768E-04  1.53794963E+00 -2.09888477E+00
  6.06601768E-04  1.53794963E+00 -2.09888477E+00  6.06601768E-04  1.53794963E+00
 -2.09888477E+00  6.06601768E-04  1.53794963E+00 -2.09888477E+00  6.06601768E-04
  1.30385471E+00  2.22048813E+00  6.00104543E-04  1.30385471E+00  2.22048813E+00
  6.00104543E-04  1.30385471E+00  2.22048813E+00  6.00104543E-04  1.30385471E+00
  2.22048813E+00  6.00104543E-04  1.30385471E+00  2.22048813E+00  6.00104543E-04
  1.30385471E+00  2.22048813E+00  6.00104543E-04  1.30385471E+00  2.22048813E+00
  6.00104543E-04  1.30385471E+00  2.22048813E+00  6.00104543E-04  1.30385471E+00
  2.22048813E+00  6.00104543E-04  1.30385471E+00  2.22048813E+00  6.00104543E-04
Constraint Structure                       R   N=          21
 -2.54428286E+00 -1.13586773E-01  2.85538053E-04  3.81933111E-01  3.90875389E-03
 -2.34836320E-03 -3.21788690E+00 -2.06804530E+00  1.16054731E-03 -3.27268314E+00
  8.76401845E-01 -1.66675025E+00 -3.26976620E+00  8.76884631E-01  1.66831300E+00
  1.53794963E+00 -2.09888477E+00  6.06601768E-04  1.30385471E+00  2.22048813E+00
  6.00104543E-04
Num ILSW                                   I              100
ILSW                                       I   N=         100
           0           0           0           0           2           0
           0           0           0           0        4336          -1
           0           0           0           0           0           0
           0           0           0           0           0           0
           1           0           0           0           0           0
           0           0      100000           0          -1           0
           0           0           0           0           0           0
           0           0           0           1           0           0
           0           0           1           0           0           0
           0           0           4          41           0           0
           0           0          55           0           0           0
           0           0           0           7           0           0
           0           0           0           0           0           0
           0           0           0           0           0           0
           0           0           0           0           0           0
           0           0           0           0           0           0
           0           0           0           0
Num RLSW                                   I               41
RLSW                                       R   N=          41
  1.00000000E+00  1.00000000E+00  1.00000000E+00  1.00000000E+00  5.40000000E-01
  0.00000000E+00  0.00000000E+00  1.00000000E+00  0.00000000E+00  0.00000000E+00
  0.00000000E+00  0.00000000E+00  1.00000000E+00  0.00000000E+00  0.00000000E+00
  0.00000000E+00  0.00000000E+00  1.00000000E+00  0.00000000E+00  0.00000000E+00
  0.00000000E+00  0.00000000E+00  1.00000000E+00  0.00000000E+00  0.00000000E+00
  0.00000000E+00  0.00000000E+00  1.00000000E+00  0.00000000E+00  0.00000000E+00
  0.00000000E+00  0.00000000E+00  1.00000000E+00  0.00000000E+00  0.00000000E+00
  0.00000000E+00  0.00000000E+00  0.00000000E+00  1.00000000E+00  1.00000000E+00
  0.00000000E+00
MxBond                                     I                4
NBond                                      I   N=           7
           4           3           1           1           1           1
           1
IBond                                      I   N=          28
           2           3           4           5           1           6
           7           0           1           0           0           0
           1           0           0           0           1           0
           0           0           2           0           0           0
           2           0           0           0
RBond                                      R   N=          28
  1.00000000E+00  1.00000000E+00  1.00000000E+00  1.00000000E+00  1.00000000E+00
  2.00000000E+00  2.00000000E+00  0.00000000E+00  1.00000000E+00  0.00000000E+00
  0.00000000E+00  0.00000000E+00  1.00000000E+00  0.00000000E+00  0.00000000E+00
  0.00000000E+00  1.00000000E+00  0.00000000E+00  0.00000000E+00  0.00000000E+00
  2.00000000E+00  0.00000000E+00  0.00000000E+00  0.00000000E+00  2.00000000E+00
  0.00000000E+00  0.00000000E+00  0.00000000E+00
Virial Ratio                               R      2.005986254899510E+00
SCF Energy                                 R     -2.284981828100953E+02
Total Energy                               R     -2.284981828100953E+02
RMS Density                                R      2.273090438825876E-09
External E-field                           R   N=          35
  0.00000000E+00  0.00000000E+00 -8.00000000E-04  0.00000000E+00  0.00000000E+00
  0.00000000E+00  0.00000000E+00  0.00000000E+00  0.00000000E+00  0.00000000E+00
  0.00000000E+00  0.00000000E+00  0.00000000E+00  0.00000000E+00  0.00000000E+00
  0.00000000E+00  0.00000000E+00  0.00000000E+00  0.00000000E+00  0.00000000E+00
  0.00000000E+00  0.00000000E+00  0.00000000E+00  0.00000000E+00  0.00000000E+00
  0.00000000E+00  0.00000000E+00  0.00000000E+00  0.00000000E+00  0.00000000E+00
  0.00000000E+00  0.00000000E+00  0.00000000E+00  0.00000000E+00  0.00000000E+00
IOpCl                                      I                0
IROHF                                      I                0
Alpha Orbital Energies                     R   N=         123
 -1.93770112E+01 -1.93737688E+01 -1.04405928E+01 -1.03676898E+01 -9.34016167E-01
 -8.44268717E-01 -6.27162921E-01 -3.88549130E-01 -3.17937071E-01 -3.12343267E-01
 -3.03390970E-01 -2.59532384E-01 -2.31335464E-01 -1.13838504E-01 -1.08854398E-01
 -1.07231133E-01  1.09282015E-01  1.23512863E-01  1.25632825E-01  1.55005452E-01
  1.86367441E-01  1.91009549E-01  1.91130412E-01  1.97090051E-01  1.99316862E-01
  2.38084456E-01  2.48057828E-01  2.57931606E-01  2.64166940E-01  2.83857883E-01
  3.05122065E-01  3.28713823E-01  3.35829376E-01  3.43133608E-01  3.55944856E-01
  3.64529804E-01  3.77044920E-01  3.90729593E-01  3.96364730E-01  3.97333089E-01
  4.30203889E-01  4.44789513E-01  4.64718261E-01  4.71648188E-01  4.74729770E-01
  4.83063753E-01  4.84894576E-01  4.91946180E-01  4.93198294E-01  5.10370379E-01
  5.11260075E-01  5.31277921E-01  5.56357796E-01  5.59773255E-01  5.89216383E-01
  5.99949137E-01  6.19648148E-01  6.38824811E-01  6.81335494E-01  7.19807195E-01
  7.42307922E-01  7.59952840E-01  7.71151312E-01  8.03620916E-01  8.11900753E-01
  8.24646312E-01  8.36720443E-01  8.49607477E-01  9.30244538E-01  9.38153633E-01
  9.46011666E-01  9.79862089E-01  9.87036223E-01  1.00876929E+00  1.01905841E+00
  1.02577583E+00  1.06438449E+00  1.07826892E+00  1.08609388E+00  1.13230423E+00
  1.16988993E+00  1.19246174E+00  1.23112190E+00  1.27319936E+00  1.29587421E+00
  1.39444712E+00  1.39524810E+00  1.44671515E+00  1.45237223E+00  1.53431288E+00
  1.56783338E+00  1.60827150E+00  1.62977959E+00  1.68031682E+00  1.68632854E+00
  1.74443858E+00  1.77533599E+00  1.80101543E+00  1.83540069E+00  1.99960640E+00
  2.04548877E+00  2.19868134E+00  2.20979942E+00  2.28384383E+00  2.32553083E+00
  2.45171216E+00  2.48014029E+00  2.54438406E+00  2.60443959E+00  2.63388186E+00
  2.68401896E+00  2.73766703E+00  2.83235896E+00  2.87684924E+00  3.15639298E+00
  3.18737840E+00  3.33411951E+00  3.40740269E+00  3.54063771E+00  2.19438355E+01
  2.21963600E+01  4.30549110E+01  4.31045390E+01
Alpha MO coefficients                      R   N=       15129
 -9.13219641E-06  4.87607352E-05 -9.75670027E-05  8.54760296E-04  5.30638028E-04
 -2.33283572E-04 -2.78377010E-05  5.75106937E-07 -1.46283823E-03  1.56547893E-03
  2.31648913E-06 -3.12557491E-03 -4.65047010E-03  1.92422956E-05 -6.76196712E-05
  4.00506655E-07 -7.85340014E-07 -2.98148673E-04  2.63500248E-04  1.42420260E-03
  9.40331965E-06  6.68183456E-06 -5.48940817E-05 -2.34543000E-03 -1.97990135E-05
  4.52443455E-05  3.30491909E-04  1.34132106E-02  2.42092005E-03  3.83880800E-04
 -3.75251831E-04  2.36987309E-06  6.46417921E-03 -8.04973404E-03  1.30207962E-05
  2.22522891E-03  5.74261945E-03 -1.96364319E-05 -1.68095162E-04  1.00352771E-06
  1.04721112E-06  4.90136709E-04  6.11435756E-04 -3.10036465E-04  1.22109955E-05
 -1.08451912E-06 -1.92442030E-03 -2.92036002E-03 -4.89029267E-06  3.15823485E-03
  4.76981911E-05 -4.46006082E-05 -1.60852799E-04  2.42824526E-07 -2.63226448E-04
  7.11416819E-04  3.17194213E-06  2.29434653E-05 -8.62554738E-04 -1.19472270E-03
  2.51102367E-04 -8.87128041E-05  1.62698479E-05  7.89069329E-04  1.09171461E-04
 -2.82782790E-04  2.46635451E-05 -8.78216645E-04 -1.19241399E-03  2.49385958E-04
 -8.88122319E-05 -1.61329354E-05  7.83085232E-04  1.08722392E-04  2.86160682E-04
  4.19533142E-01  6.62366349E-01  1.89377128E-02 -1.24361757E-02 -8.82707399E-03
 -7.14903487E-04  1.32634733E-03 -2.66306004E-06  2.42779467E-03 -4.98266342E-03
  7.49877247E-06  9.36251207E-05 -2.17912054E-03  2.82203836E-06  8.09825653E-06
  1.51882598E-07 -1.30632246E-07 -4.48477149E-05 -5.65562317E-05  4.27220210E-04
 -2.18370716E-06  2.55411751E-06  9.99659217E-04  1.08143516E-03 -1.64570546E-03
 -2.58794623E-03 -5.17273204E-05 -4.53162863E-04  2.30829540E-03  7.39760848E-05
  7.93791340E-05  6.22597254E-07 -1.06269694E-03  1.48965288E-03 -4.35203407E-06
 -1.01739908E-03 -6.62449164E-04 -3.67199687E-06  1.24344345E-05  4.50205621E-07
 -4.34417493E-07  1.25914261E-04  7.28395725E-05  1.89774225E-04  1.03752438E-06
  3.01697394E-06  1.30941487E-03  3.06639080E-04 -1.10922270E-05  5.87399372E-05
 -2.35148190E-04  1.08106668E-03  2.04438985E-03 -2.86029128E-04 -4.58900496E-05
  5.64373059E-07  8.57352570E-04 -2.65218940E-03 -1.41166846E-05 -1.02098028E-03
  1.32765834E-03  2.89944423E-05  5.50793451E-05  5.54596976E-07  1.11453103E-06
 -2.39711380E-04 -1.98325142E-04  1.21080230E-03  1.27890381E-05 -3.20392026E-06
  4.42469009E-04 -2.65526792E-04 -2.09063765E-05  5.01722241E-05  3.95071697E-04
  1.01329260E-02 -1.36070723E-03  3.68639036E-04  4.19729265E-04  2.32684846E-06
  5.61778917E-03  9.70446700E-03  9.95055525E-06  1.99547155E-03 -1.05142837E-03
 -2.79885790E-05 -1.00273883E-04  7.33065220E-07 -1.01788153E-06  6.25949690E-04
 -5.20821829E-04 -4.34119934E-04  1.55233336E-05  6.73431498E-06 -1.58995852E-03
  5.82726450E-04 -1.00754378E-04 -4.06517656E-04  9.78200175E-04  1.06821053E-04
  5.45508419E-05  1.30977730E-06 -1.30944450E-04 -4.72324246E-05 -1.64898911E-06
  6.95987421E-07  1.18720524E-03 -8.39361025E-04 -1.57824862E-04  7.41872938E-05
  3.73766904E-05  3.68884171E-04  3.21575017E-04  5.83522332E-04  1.33490374E-06
  1.24482195E-03 -8.37446276E-04 -1.58375212E-04  7.27675936E-05 -3.66276852E-05
  3.69444475E-04  3.13728374E-04 -6.02898081E-04  1.64548215E-03  2.60899215E-03
  7.82171957E-05 -3.46458690E-04  3.17009500E-03  8.59303292E-05 -6.54652328E-05
  5.74090822E-07 -1.19872495E-03 -1.34266491E-03 -4.14725980E-06 -1.56483264E-03
  5.42522634E-04 -3.23769979E-06  1.73232623E-07  2.92772232E-07  4.87781289E-07
  1.31773651E-04 -3.07647551E-05  2.08965212E-04  2.03338898E-06 -3.07257399E-06
  1.24855766E-03 -2.66863386E-04  4.19532207E-01  6.62383059E-01  1.88013242E-02
 -1.17495809E-02 -8.33648074E-03 -6.02008342E-04 -1.41090223E-03 -2.60499541E-06
  1.93540844E-03  4.87163221E-03  6.06558232E-06  4.24455098E-04  1.99194793E-03
 -4.02495318E-07  6.59314062E-06  2.48945542E-07  1.44791531E-07 -4.42331300E-05
  5.81659334E-05  4.10894162E-04 -2.16161647E-06 -2.16289538E-06  9.56276314E-04
 -8.58687759E-04  9.40042080E-04  1.37088068E-03  1.03632451E-04  1.05463750E-03
  1.32554913E-02 -3.31416981E-05 -3.48468293E-05 -4.64694156E-08  7.64701801E-03
 -2.35308760E-03  3.55724682E-06  5.90475879E-03 -5.65101487E-04 -3.56513552E-05
  2.97612431E-04  1.42309566E-06  1.66847766E-07 -4.72728920E-04  1.45560730E-05
 -2.51926982E-03 -1.53038267E-05 -3.37278566E-06  1.79220355E-03 -4.30451977E-04
  4.53381956E-01  6.29363914E-01  2.09204769E-02 -8.65542870E-03 -2.57931839E-02
  6.29137039E-04  1.92385616E-05  1.90264198E-06  8.44178463E-03  9.76021972E-04
 -1.62843910E-05  1.84205626E-03  9.97743281E-04  2.11200277E-05 -4.62111986E-04
  7.51564333E-07  5.18663833E-08 -6.70271985E-04 -1.44650344E-04  2.38942970E-03
 -9.96405796E-06  1.39650915E-06 -4.84576741E-04 -8.54106437E-04 -2.08947137E-04
 -9.24361759E-04  1.41012333E-03 -1.32872971E-04  2.28060404E-05 -7.50853872E-07
  1.75651563E-04 -6.32403489E-05 -2.21296492E-06 -1.64200416E-04  6.65673351E-03
  1.37012227E-03 -5.99772904E-05  1.16489625E-05  2.35697862E-04  1.73530148E-03
 -1.36192556E-03  1.14548607E-03 -1.64580972E-04  6.61935847E-03  1.38281339E-03
 -5.98039353E-05  1.22093422E-05 -2.35675048E-04  1.72976135E-03 -1.35418900E-03
 -1.13538881E-03 -7.25162675E-05 -1.91476391E-04  7.90245956E-04 -2.15822331E-03
  2.12961511E-03  1.47707691E-04 -5.12526274E-05 -4.54943323E-07  4.32374730E-04
 -2.27099000E-03  8.89222236E-06  4.16760381E-04 -9.15701656E-04  4.92787945E-07
  2.67061639E-04 -8.50804947E-07  1.06225929E-06  1.55733672E-04  3.98097765E-04
  8.39130244E-04 -1.46605939E-06  6.82214266E-06  9.12956991E-04  1.03778935E-03
 -7.25596818E-05 -1.83658886E-04  7.21829234E-04 -1.82575505E-03  1.50711425E-03
  1.03716182E-04  4.56613213E-05 -5.40201239E-07  4.36602046E-04  2.23516869E-03
  8.51274570E-06  1.66281938E-03  9.28356022E-04  2.08666682E-07  2.54792624E-04
 -5.15281961E-07 -1.02912564E-06  2.61851964E-04 -3.42126490E-04  8.38044354E-04
 -2.05542999E-06 -7.08366109E-06  7.92505198E-04 -9.95672835E-04  4.53288342E-01
  6.29192315E-01  2.25489338E-02 -2.27527958E-02 -1.31402578E-02 -7.49156171E-04
  1.10318290E-04  2.47174925E-07 -2.98567320E-03 -9.27218780E-04  2.25378046E-06
 -2.94295979E-03 -2.25690770E-03 -1.24120507E-05  2.09372515E-04  5.42419968E-07
 -1.10084221E-07 -3.16289991E-04 -3.47029352E-05  1.04789422E-03 -3.36787915E-06
  2.96845163E-07 -1.10974296E-03 -1.11938774E-03 -1.00934627E-03 -1.33761919E-03
 -1.69758057E-04  3.81413640E-03  6.95538872E-03 -2.75806138E-04 -3.78454097E-05
  1.19703962E-07 -4.53072400E-03  3.30526697E-04  8.11025030E-06 -3.62826602E-04
  3.23367200E-03  1.45829755E-05  8.38105752E-05  6.80442792E-07  5.67999644E-09
 -5.43751510E-04 -2.21949920E-05 -1.43270229E-04 -6.25629545E-06  9.69956793E-07
 -1.72520715E-04 -1.56006494E-03 -3.47533544E-04  4.96181449E-03  1.49508559E-03
 -3.55036109E-04 -1.14741352E-03  3.11790904E-07  8.33094865E-04  2.55998057E-03
 -1.07943547E-06 -3.87661932E-04  4.40793489E-03  4.02543157E-04 -3.86704763E-04
  6.35686007E-04 -1.02362130E-03  1.17848767E-03 -1.17298167E-03  2.09038409E-03
 -3.87131490E-04  4.39535515E-03  4.04469521E-04 -3.84589276E-04  6.36135148E-04
  1.02397802E-03  1.17425836E-03 -1.17089721E-03 -2.08691783E-03  1.40570576E-06
  2.54044061E-05 -1.17990462E-04 -2.91757966E-04  1.00623079E-03  1.09176211E-04
 -1.04256667E-04  2.22516235E-07  2.47378231E-04  4.45084834E-04 -7.31107725E-07
 -5.95599543E-04 -2.08303529E-04 -1.63377346E-06 -3.05365917E-05 -3.24838784E-07
 -5.03552340E-08 -4.51469239E-05  3.32271078E-05 -2.31269858E-04  4.88952113E-07
 -1.23058060E-06  7.11199020E-05  1.57057467E-04  1.15913309E-06  3.16808045E-05
 -1.65062644E-04 -1.57746427E-04  1.70957868E-03  8.98786766E-05  1.31809711E-04
  3.10622405E-07  4.86214396E-04 -5.20293168E-04 -1.44873790E-06  2.15155011E-04
 -1.21770470E-03 -6.46334547E-07 -2.69881621E-05 -1.64259199E-07 -2.49442283E-08
 -5.95508913E-06 -5.27175987E-05 -3.01682399E-04 -8.42875384E-07  1.37929965E-06
 -8.47941975E-05 -5.43885061E-05 -1.11587191E-02 -2.52096743E-02  5.11793260E-02
 -5.26002816E-02 -2.34474348E-01  3.72617169E-02  2.06772968E-03 -1.65418674E-05
  6.12233820E-04  1.84102561E-02  1.31656553E-05 -2.12255884E-02  1.06327927E-02
 -1.76707853E-04 -3.78909467E-03 -1.04776320E-05 -1.01264448E-06  9.12446456E-03
  4.22499001E-04 -2.85028074E-02 -1.05996494E-04 -1.45165528E-05 -1.24141455E-02
  1.69490262E-02 -6.26551065E-02 -1.39303101E-01  2.87335071E-01  2.57087858E-01
  2.71768812E-01  9.44391104E-02  1.89015807E-03  2.92970482E-04 -4.78114080E-02
 -1.22895142E-02  1.60016853E-06 -1.28652471E-01 -3.14350220E-02  2.74879124E-04
 -1.87921018E-02  2.40082779E-05  2.74885241E-07 -2.51494709E-02 -3.07072802E-03
  1.86616554E-02 -1.93608315E-04 -3.47417711E-05  7.02749079E-02  1.90059591E-02
  1.63609881E-02  2.61538085E-02 -2.97628534E-02  1.74928409E-03  5.03709182E-03
 -4.48374827E-06  1.15190847E-02  1.16403640E-02 -2.27900567E-05  1.65502477E-02
  1.40174022E-02  1.35105861E-03  5.81813298E-04 -2.24034533E-03  3.06350114E-03
 -5.23698908E-03 -4.50110667E-03 -3.99381692E-03  1.65545269E-02  1.39194701E-02
  1.30058514E-03  5.84515786E-04 -2.23456134E-03 -3.07094985E-03 -5.19809047E-03
 -4.51170830E-03  4.05746547E-03 -5.79569487E-02 -1.45688032E-01  2.97954889E-01
  2.66451294E-01 -5.66183128E-02 -5.19400445E-02  1.05411501E-01 -1.17209292E-04
  1.02699914E-02 -1.03081822E-02  2.93566759E-05  4.09959975E-02 -5.85661370E-02
  5.32608997E-05 -6.51246797E-03  7.98245370E-06 -2.90200557E-05 -8.37071146E-03
 -1.04569635E-02  1.46352967E-02 -1.44542062E-05  6.69212934E-05  4.33195354E-03
  1.84914040E-02 -5.62977039E-02 -1.41527867E-01  2.89573478E-01  2.57387706E-01
 -4.63127749E-02 -3.90389320E-02 -1.08316342E-01 -1.12928671E-04  6.33713758E-03
  1.04385691E-02  3.38361115E-05  2.61071120E-02  6.06768951E-02  6.90392264E-05
 -6.43294013E-03  3.79367946E-06  2.87801500E-05 -1.03007993E-02  8.14868942E-03
  1.41624710E-02 -7.51286766E-08 -6.72229880E-05  8.76191197E-03 -1.61219860E-02
 -6.28932866E-04 -1.38562472E-03  2.70451016E-03 -1.25431794E-03 -7.90665994E-03
  1.05535970E-03  1.77974100E-02 -8.43678525E-07 -5.71251762E-03 -1.49717970E-02
 -5.86998399E-05  5.93289729E-03 -1.02457285E-01 -1.17280919E-04 -9.06269796E-05
  5.51853306E-07 -8.56416322E-06 -3.75384090E-04  5.86276946E-03 -6.46740677E-03
 -1.09433314E-04  2.11880175E-04  2.32882639E-03 -2.82741212E-02 -9.06657907E-04
 -2.04915202E-03  4.21800785E-03  1.24681247E-02 -1.09969902E-02 -1.58631959E-02