polar                                                                   
SP        RM062X                                                      Gen                 
Number of atoms                            I                7
Info1-9                                    I   N=           9
          98          97           0           0           0         110
           1          18        -502
Charge                                     I               -1
Multiplicity                               I                1
Number of electrons                        I               32
Number of alpha electrons                  I               16
Number of beta electrons                   I               16
Number of basis functions                  I              123
Number of independent functions            I              123
Number of point charges in /Mol/           I                0
Number of translation vectors              I                0
Atomic numbers                             I   N=           7
           6           6           1           1           1           8
           8
Nuclear charges                            R   N=           7
  6.00000000E+00  6.00000000E+00  1.00000000E+00  1.00000000E+00  1.00000000E+00
  8.00000000E+00  8.00000000E+00
Current cartesian coordinates              R   N=          21
 -2.54428286E+00 -1.13586773E-01  2.85538053E-04  3.81933111E-01  3.90875389E-03
 -2.34836320E-03 -3.21788690E+00 -2.06804530E+00  1.16054731E-03 -3.27268314E+00
  8.76401845E-01 -1.66675025E+00 -3.26976620E+00  8.76884631E-01  1.66831300E+00
  1.53794963E+00 -2.09888477E+00  6.06601768E-04  1.30385471E+00  2.22048813E+00
  6.00104543E-04
Force Field                                I                0
Int Atom Types                             I   N=           7
           0           0           0           0           0           0
           0
MM charges                                 R   N=           7
  0.00000000E+00  0.00000000E+00  0.00000000E+00  0.00000000E+00  0.00000000E+00
  0.00000000E+00  0.00000000E+00
Integer atomic weights                     I   N=           7
          12          12           1           1           1          16
          16
Real atomic weights                        R   N=           7
  1.20000000E+01  1.20000000E+01  1.00782504E+00  1.00782504E+00  1.00782504E+00
  1.59949146E+01  1.59949146E+01
Atom fragment info                         I   N=           7
           0           0           0           0           0           0
           0
Atom residue num                           I   N=           7
           0           0           0           0           0           0
           0
Nuclear spins                              I   N=           7
           0           0           1           1           1           0
           0
Nuclear ZEff                               R   N=           7
 -3.60000000E+00 -3.60000000E+00 -1.00000000E+00 -1.00000000E+00 -1.00000000E+00
 -5.60000000E+00 -5.60000000E+00
Nuclear ZNuc                               R   N=           7
  6.00000000E+00  6.00000000E+00  1.00000000E+00  1.00000000E+00  1.00000000E+00
  8.00000000E+00  8.00000000E+00
Nuclear QMom                               R   N=           7
  0.00000000E+00  0.00000000E+00  0.00000000E+00  0.00000000E+00  0.00000000E+00
  0.00000000E+00  0.00000000E+00
Nuclear GFac                               R   N=           7
  0.00000000E+00  0.00000000E+00  2.79284600E+00  2.79284600E+00  2.79284600E+00
  0.00000000E+00  0.00000000E+00
MicOpt                                     I   N=           7
          -1          -1          -1          -1          -1          -1
          -1
Number of contracted shells                I               55
Number of primitive shells                 I              110
Pure/Cartesian d shells                    I                0
Pure/Cartesian f shells                    I                0
Highest angular momentum                   I                2
Largest degree of contraction              I                5
Shell types                                I   N=          55
           0           0           0           0           0           1
           1           1          -2          -2           0           0
           0           0           0           1           1           1
          -2          -2           0           0           0           1
           1           0           0           0           1           1
           0           0           0           1           1           0
           0           0           0           0           1           1
           1          -2          -2           0           0           0
           0           0           1           1           1          -2
          -2
Number of primitives per shell             I   N=          55
           5           2           1           1           1           4
           1           1           2           2           5           2
           1           1           1           4           1           1
           2           2           4           1           1           2
           2           4           1           1           2           2
           4           1           1           2           2           5
           2           1           1           1           4           1
           1           2           2           5           2           1
           1           1           4           1           1           2
           2
Shell to atom map                          I   N=          55
           1           1           1           1           1           1
           1           1           1           1           2           2
           2           2           2           2           2           2
           2           2           3           3           3           3
           3           4           4           4           4           4
           5           5           5           5           5           6
           6           6           6           6           6           6
           6           6           6           7           7           7
           7           7           7           7           7           7
           7
Primitive exponents                        R   N=         110
  5.24063530E+03  7.82204800E+02  1.78350830E+02  5.08159420E+01  1.68235620E+01
  6.17577600E+00  2.41804900E+00  5.11900000E-01  1.56590000E-01  4.79000000E-02
  1.88418000E+01  4.15924000E+00  1.20671000E+00  3.85540000E-01  1.21940000E-01
  3.85680000E-02  1.20670000E+00  3.85500000E-01  1.21900000E-01  3.86000000E-02
  5.24063530E+03  7.82204800E+02  1.78350830E+02  5.08159420E+01  1.68235620E+01
  6.17577600E+00  2.41804900E+00  5.11900000E-01  1.56590000E-01  4.79000000E-02
  1.88418000E+01  4.15924000E+00  1.20671000E+00  3.85540000E-01  1.21940000E-01
  3.85680000E-02  1.20670000E+00  3.85500000E-01  1.21900000E-01  3.86000000E-02
  3.38650140E+01  5.09478800E+00  1.15878600E+00  3.25840000E-01  1.02741000E-01
  3.24000000E-02  1.15880000E+00  3.25800000E-01  1.02700000E-01  3.24000000E-02
  3.38650140E+01  5.09478800E+00  1.15878600E+00  3.25840000E-01  1.02741000E-01
  3.24000000E-02  1.15880000E+00  3.25800000E-01  1.02700000E-01  3.24000000E-02
  3.38650140E+01  5.09478800E+00  1.15878600E+00  3.25840000E-01  1.02741000E-01
  3.24000000E-02  1.15880000E+00  3.25800000E-01  1.02700000E-01  3.24000000E-02
  1.06622850E+04  1.59970970E+03  3.64725260E+02  1.03651790E+02  3.39058050E+01
  1.22874690E+01  4.75680500E+00  1.00427100E+00  3.00686000E-01  9.00300000E-02
  3.48564630E+01  7.84313100E+00  2.30624900E+00  7.23164000E-01  2.14882000E-01
  6.38500000E-02  2.30620000E+00  7.23200000E-01  2.14900000E-01  6.39000000E-02
  1.06622850E+04  1.59970970E+03  3.64725260E+02  1.03651790E+02  3.39058050E+01
  1.22874690E+01  4.75680500E+00  1.00427100E+00  3.00686000E-01  9.00300000E-02
  3.48564630E+01  7.84313100E+00  2.30624900E+00  7.23164000E-01  2.14882000E-01
  6.38500000E-02  2.30620000E+00  7.23200000E-01  2.14900000E-01  6.39000000E-02
Contraction coefficients                   R   N=         110
  2.06539993E-03  1.59324554E-02  8.01119476E-02  2.87877514E-01  7.03009673E-01
  6.94067370E-01  3.40077856E-01  1.00000000E+00  1.00000000E+00  1.00000000E+00
  1.80615059E-02  1.12214925E-01  3.75541979E-01  6.49536597E-01  1.00000000E+00
  1.00000000E+00  2.67978866E-01  8.19993920E-01  4.83796365E-01  6.39336711E-01
  2.06539993E-03  1.59324554E-02  8.01119476E-02  2.87877514E-01  7.03009673E-01
  6.94067370E-01  3.40077856E-01  1.00000000E+00  1.00000000E+00  1.00000000E+00
  1.80615059E-02  1.12214925E-01  3.75541979E-01  6.49536597E-01  1.00000000E+00
  1.00000000E+00  2.67978866E-01  8.19993920E-01  4.83796365E-01  6.39336711E-01
  8.76044950E-03  6.54232910E-02  2.92851374E-01  7.27211150E-01  1.00000000E+00
  1.00000000E+00  1.86447366E-01  8.73088966E-01  9.76214574E-01  3.48056130E-02
  8.76044950E-03  6.54232910E-02  2.92851374E-01  7.27211150E-01  1.00000000E+00
  1.00000000E+00  1.86447366E-01  8.73088966E-01  9.76214574E-01  3.48056130E-02
  8.76044950E-03  6.54232910E-02  2.92851374E-01  7.27211150E-01  1.00000000E+00
  1.00000000E+00  1.86447366E-01  8.73088966E-01  9.76214574E-01  3.48056130E-02
  1.90604745E-03  1.46782352E-02  7.43263084E-02  2.75759025E-01  7.19364732E-01
  6.69996511E-01  3.66229217E-01  1.00000000E+00  1.00000000E+00  1.00000000E+00
  1.99439284E-02  1.25155543E-01  3.92261182E-01  6.27670401E-01  1.00000000E+00
  1.00000000E+00  2.83613619E-01  8.10264660E-01  6.73833443E-01  4.58004278E-01
  1.90604745E-03  1.46782352E-02  7.43263084E-02  2.75759025E-01  7.19364732E-01
  6.69996511E-01  3.66229217E-01  1.00000000E+00  1.00000000E+00  1.00000000E+00
  1.99439284E-02  1.25155543E-01  3.92261182E-01  6.27670401E-01  1.00000000E+00
  1.00000000E+00  2.83613619E-01  8.10264660E-01  6.73833443E-01  4.58004278E-01
Coordinates of each shell                  R   N=         165
 -2.54428286E+00 -1.13586773E-01  2.85538053E-04 -2.54428286E+00 -1.13586773E-01
  2.85538053E-04 -2.54428286E+00 -1.13586773E-01  2.85538053E-04 -2.54428286E+00
 -1.13586773E-01  2.85538053E-04 -2.54428286E+00 -1.13586773E-01  2.85538053E-04
 -2.54428286E+00 -1.13586773E-01  2.85538053E-04 -2.54428286E+00 -1.13586773E-01
  2.85538053E-04 -2.54428286E+00 -1.13586773E-01  2.85538053E-04 -2.54428286E+00
 -1.13586773E-01  2.85538053E-04 -2.54428286E+00 -1.13586773E-01  2.85538053E-04
  3.81933111E-01  3.90875389E-03 -2.34836320E-03  3.81933111E-01  3.90875389E-03
 -2.34836320E-03  3.81933111E-01  3.90875389E-03 -2.34836320E-03  3.81933111E-01
  3.90875389E-03 -2.34836320E-03  3.81933111E-01  3.90875389E-03 -2.34836320E-03
  3.81933111E-01  3.90875389E-03 -2.34836320E-03  3.81933111E-01  3.90875389E-03
 -2.34836320E-03  3.81933111E-01  3.90875389E-03 -2.34836320E-03  3.81933111E-01
  3.90875389E-03 -2.34836320E-03  3.81933111E-01  3.90875389E-03 -2.34836320E-03
 -3.21788690E+00 -2.06804530E+00  1.16054731E-03 -3.21788690E+00 -2.06804530E+00
  1.16054731E-03 -3.21788690E+00 -2.06804530E+00  1.16054731E-03 -3.21788690E+00
 -2.06804530E+00  1.16054731E-03 -3.21788690E+00 -2.06804530E+00  1.16054731E-03
 -3.27268314E+00  8.76401845E-01 -1.66675025E+00 -3.27268314E+00  8.76401845E-01
 -1.66675025E+00 -3.27268314E+00  8.76401845E-01 -1.66675025E+00 -3.27268314E+00
  8.76401845E-01 -1.66675025E+00 -3.27268314E+00  8.76401845E-01 -1.66675025E+00
 -3.26976620E+00  8.76884631E-01  1.66831300E+00 -3.26976620E+00  8.76884631E-01
  1.66831300E+00 -3.26976620E+00  8.76884631E-01  1.66831300E+00 -3.26976620E+00
  8.76884631E-01  1.66831300E+00 -3.26976620E+00  8.76884631E-01  1.66831300E+00
  1.53794963E+00 -2.09888477E+00  6.06601768E-04  1.53794963E+00 -2.09888477E+00
  6.06601768E-04  1.53794963E+00 -2.09888477E+00  6.06601768E-04  1.53794963E+00
 -2.09888477E+00  6.06601768E-04  1.53794963E+00 -2.09888477E+00  6.06601768E-04
  1.53794963E+00 -2.09888477E+00  6.06601768E-04  1.53794963E+00 -2.09888477E+00
  6.06601768E-04  1.53794963E+00 -2.09888477E+00  6.06601768E-04  1.53794963E+00
 -2.09888477E+00  6.06601768E-04  1.53794963E+00 -2.09888477E+00  6.06601768E-04
  1.30385471E+00  2.22048813E+00  6.00104543E-04  1.30385471E+00  2.22048813E+00
  6.00104543E-04  1.30385471E+00  2.22048813E+00  6.00104543E-04  1.30385471E+00
  2.22048813E+00  6.00104543E-04  1.30385471E+00  2.22048813E+00  6.00104543E-04
  1.30385471E+00  2.22048813E+00  6.00104543E-04  1.30385471E+00  2.22048813E+00
  6.00104543E-04  1.30385471E+00  2.22048813E+00  6.00104543E-04  1.30385471E+00
  2.22048813E+00  6.00104543E-04  1.30385471E+00  2.22048813E+00  6.00104543E-04
Constraint Structure                       R   N=          21
 -2.54428286E+00 -1.13586773E-01  2.85538053E-04  3.81933111E-01  3.90875389E-03
 -2.34836320E-03 -3.21788690E+00 -2.06804530E+00  1.16054731E-03 -3.27268314E+00
  8.76401845E-01 -1.66675025E+00 -3.26976620E+00  8.76884631E-01  1.66831300E+00
  1.53794963E+00 -2.09888477E+00  6.06601768E-04  1.30385471E+00  2.22048813E+00
  6.00104543E-04
Num ILSW                                   I              100
ILSW                                       I   N=         100
           0           0           0           0           2           0
           0           0           0           0        4336          -1
           0           0           0           0           0           0
           0           0           0           0           0           0
           1           0           0           0           0           0
           0           0      100000           0          -1           0
           0           0           0           0           0           0
           0           0           0           1           0           0
           0           0           1           0           0           0
           0           0           4          41           0           0
           0           0          55           0           0           0
           0           0           0           7           0           0
           0           0           0           0           0           0
           0           0           0           0           0           0
           0           0           0           0           0           0
           0           0           0           0           0           0
           0           0           0           0
Num RLSW                                   I               41
RLSW                                       R   N=          41
  1.00000000E+00  1.00000000E+00  1.00000000E+00  1.00000000E+00  5.40000000E-01
  0.00000000E+00  0.00000000E+00  1.00000000E+00  0.00000000E+00  0.00000000E+00
  0.00000000E+00  0.00000000E+00  1.00000000E+00  0.00000000E+00  0.00000000E+00
  0.00000000E+00  0.00000000E+00  1.00000000E+00  0.00000000E+00  0.00000000E+00
  0.00000000E+00  0.00000000E+00  1.00000000E+00  0.00000000E+00  0.00000000E+00
  0.00000000E+00  0.00000000E+00  1.00000000E+00  0.00000000E+00  0.00000000E+00
  0.00000000E+00  0.00000000E+00  1.00000000E+00  0.00000000E+00  0.00000000E+00
  0.00000000E+00  0.00000000E+00  0.00000000E+00  1.00000000E+00  1.00000000E+00
  0.00000000E+00
MxBond                                     I                4
NBond                                      I   N=           7
           4           3           1           1           1           1
           1
IBond                                      I   N=          28
           2           3           4           5           1           6
           7           0           1           0           0           0
           1           0           0           0           1           0
           0           0           2           0           0           0
           2           0           0           0
RBond                                      R   N=          28
  1.00000000E+00  1.00000000E+00  1.00000000E+00  1.00000000E+00  1.00000000E+00
  2.00000000E+00  2.00000000E+00  0.00000000E+00  1.00000000E+00  0.00000000E+00
  0.00000000E+00  0.00000000E+00  1.00000000E+00  0.00000000E+00  0.00000000E+00
  0.00000000E+00  1.00000000E+00  0.00000000E+00  0.00000000E+00  0.00000000E+00
  2.00000000E+00  0.00000000E+00  0.00000000E+00  0.00000000E+00  2.00000000E+00
  0.00000000E+00  0.00000000E+00  0.00000000E+00
Virial Ratio                               R      2.005986439301675E+00
SCF Energy                                 R     -2.284982375059843E+02
Total Energy                               R     -2.284982375059843E+02
RMS Density                                R      3.257453693801860E-09
External E-field                           R   N=          35
  0.00000000E+00  0.00000000E+00  0.00000000E+00 -8.00000000E-04  0.00000000E+00
  0.00000000E+00  0.00000000E+00  0.00000000E+00  0.00000000E+00  0.00000000E+00
  0.00000000E+00  0.00000000E+00  0.00000000E+00  0.00000000E+00  0.00000000E+00
  0.00000000E+00  0.00000000E+00  0.00000000E+00  0.00000000E+00  0.00000000E+00
  0.00000000E+00  0.00000000E+00  0.00000000E+00  0.00000000E+00  0.00000000E+00
  0.00000000E+00  0.00000000E+00  0.00000000E+00  0.00000000E+00  0.00000000E+00
  0.00000000E+00  0.00000000E+00  0.00000000E+00  0.00000000E+00  0.00000000E+00
IOpCl                                      I                0
IROHF                                      I                0
Alpha Orbital Energies                     R   N=         123
 -1.93765840E+01 -1.93742559E+01 -1.04406016E+01 -1.03676376E+01 -9.34032159E-01
 -8.44303639E-01 -6.27122697E-01 -3.88538697E-01 -3.18014277E-01 -3.12222988E-01
 -3.03363043E-01 -2.59501924E-01 -2.31366707E-01 -1.13891017E-01 -1.08460273E-01
 -1.07673933E-01  1.08834074E-01  1.22864215E-01  1.26927594E-01  1.54958116E-01
  1.85635541E-01  1.91442340E-01  1.92142230E-01  1.97474928E-01  1.98089560E-01
  2.37738110E-01  2.47750449E-01  2.57630965E-01  2.65092176E-01  2.83995538E-01
  3.05194486E-01  3.28648968E-01  3.35702164E-01  3.43132366E-01  3.56240305E-01
  3.64244911E-01  3.77058024E-01  3.91607304E-01  3.95838805E-01  3.97251882E-01
  4.30467110E-01  4.44464559E-01  4.63715158E-01  4.72363173E-01  4.74539678E-01
  4.83394858E-01  4.85166781E-01  4.91825066E-01  4.92813975E-01  5.10380366E-01
  5.11305944E-01  5.31332731E-01  5.56542325E-01  5.59713008E-01  5.89500748E-01
  5.99927566E-01  6.19729463E-01  6.39109472E-01  6.81594165E-01  7.19693390E-01
  7.42400757E-01  7.59769735E-01  7.70888481E-01  8.04059403E-01  8.11942972E-01
  8.24872567E-01  8.36646179E-01  8.49387212E-01  9.30706392E-01  9.37930743E-01
  9.46258200E-01  9.79500404E-01  9.87503634E-01  1.00834593E+00  1.01893724E+00
  1.02596559E+00  1.06490104E+00  1.07815279E+00  1.08527806E+00  1.13250321E+00
  1.16960539E+00  1.19243086E+00  1.23139516E+00  1.27316376E+00  1.29592935E+00
  1.39407314E+00  1.39521430E+00  1.44724111E+00  1.45231203E+00  1.53452670E+00
  1.56801574E+00  1.60804831E+00  1.62967843E+00  1.68026284E+00  1.68646974E+00
  1.74471537E+00  1.77519984E+00  1.80073639E+00  1.83565274E+00  1.99952561E+00
  2.04552540E+00  2.19872339E+00  2.20980618E+00  2.28385231E+00  2.32553577E+00
  2.45206622E+00  2.47995273E+00  2.54428618E+00  2.60447181E+00  2.63409641E+00
  2.68405038E+00  2.73742602E+00  2.83229968E+00  2.87687946E+00  3.15632905E+00
  3.18738452E+00  3.33412959E+00  3.40733826E+00  3.54059348E+00  2.19438408E+01
  2.21963992E+01  4.30544166E+01  4.31049744E+01
Alpha MO coefficients                      R   N=       15129
 -9.12217989E-06  4.87112495E-05 -9.75050525E-05  8.53555879E-04  5.14153854E-04
 -2.33005975E-04 -2.77540454E-05  5.64944201E-07 -1.45931180E-03  1.56915419E-03
  2.52036443E-06 -3.12258751E-03 -4.65372357E-03  1.58153951E-05 -6.77791569E-05
  4.49757905E-07 -7.54080522E-07 -2.97837377E-04  2.64017599E-04  1.42109664E-03
  8.16952029E-06  5.67971314E-06 -5.47500550E-05 -2.34533610E-03 -1.97956159E-05
  4.52871290E-05  3.30061567E-04  1.34000453E-02  2.43770064E-03  3.83305268E-04
 -3.75667637E-04  2.31306364E-06  6.46343852E-03 -8.06512852E-03  1.14888919E-05
  2.21619643E-03  5.74623040E-03 -1.63893608E-05 -1.67336850E-04  1.00406370E-06
  8.85382443E-07  4.89819538E-04  6.13299157E-04 -3.09724400E-04  1.04779634E-05
 -1.14204814E-07 -1.91903559E-03 -2.92044967E-03 -4.89482772E-06  3.16033728E-03
  4.59271440E-05 -4.47819701E-05 -1.61020371E-04  1.97011412E-07 -2.63405372E-04
  7.12141274E-04  2.62098583E-06  2.30407113E-05 -8.61667335E-04 -1.19290076E-03
  2.51245961E-04 -8.88537442E-05  1.62508395E-05  7.88175866E-04  1.07783485E-04
 -2.83039077E-04  2.46778399E-05 -8.77530206E-04 -1.18995671E-03  2.49682030E-04
 -8.89537273E-05 -1.61726183E-05  7.82458140E-04  1.07989263E-04  2.86642061E-04
  4.19530082E-01  6.62361906E-01  1.89367172E-02 -1.24336624E-02 -8.84404660E-03
 -7.15248901E-04  1.33050210E-03 -5.16354053E-06  2.42933755E-03 -4.98510613E-03
  9.39638758E-06  9.76900876E-05 -2.18509789E-03  3.22699087E-06  7.82866308E-06
  1.91513337E-07 -2.31914316E-07 -4.53048560E-05 -5.67055726E-05  4.28000032E-04
 -2.34519381E-06  3.15042869E-06  9.99398346E-04  1.08242307E-03 -2.29207419E-03
 -3.60845569E-03 -8.07442856E-05 -4.35611204E-04  2.31910915E-03  7.49244542E-05
  8.16148521E-05  6.00042351E-07 -1.06709948E-03  1.48276699E-03 -3.83536279E-06
 -1.01892498E-03 -6.65412029E-04 -3.84953045E-06  1.23993088E-05  4.22699645E-07
 -4.41586566E-07  1.26125319E-04  7.28476501E-05  1.88686724E-04  1.05970141E-06
  2.59516424E-06  1.30808284E-03  3.08586803E-04 -1.10981912E-05  5.87652848E-05
 -2.34974988E-04  1.08228857E-03  2.05820091E-03 -2.86237427E-04 -4.58903199E-05
  5.67605991E-07  8.51163901E-04 -2.64829088E-03 -1.23385427E-05 -1.02684865E-03
  1.32316054E-03  2.47525646E-05  5.50541584E-05  5.73812628E-07  1.05189748E-06
 -2.40128438E-04 -1.97758835E-04  1.21424176E-03  1.10717093E-05 -2.76408891E-06
  4.41620464E-04 -2.68527506E-04 -2.09056562E-05  5.01149982E-05  3.95426749E-04
  1.01501149E-02 -1.37044092E-03  3.69269252E-04  4.19384672E-04  2.24918272E-06
  5.62083968E-03  9.68910132E-03  8.50392924E-06  2.00420760E-03 -1.04341918E-03
 -2.39271908E-05 -1.01133436E-04  7.35566010E-07 -8.34557409E-07  6.25773133E-04
 -5.18941240E-04 -4.34498419E-04  1.35025766E-05  5.76057579E-06 -1.59576471E-03
  5.80602140E-04 -1.00696682E-04 -4.02745519E-04  9.78105725E-04  1.06745030E-04
  5.42277077E-05  1.13733449E-06 -1.30923655E-04 -4.68104349E-05 -1.46410812E-06
  7.30368193E-07  1.18697162E-03 -8.41706483E-04 -1.57550583E-04  7.39820257E-05
  3.73718330E-05  3.70250439E-04  3.21455336E-04  5.83960043E-04  1.34149608E-06
  1.23623738E-03 -8.39963015E-04 -1.58011064E-04  7.27345676E-05 -3.66204775E-05
  3.70361438E-04  3.14725562E-04 -6.00682191E-04  2.29185210E-03  3.62947948E-03
  1.07439127E-04 -3.65035243E-04  3.15737681E-03  8.47809257E-05 -6.33144902E-05
  5.16499964E-07 -1.19337100E-03 -1.34967038E-03 -3.55063974E-06 -1.56307799E-03
  5.39365006E-04 -3.24620877E-06  2.07459686E-07  2.68135699E-07  4.84344157E-07
  1.31538454E-04 -3.07709937E-05  2.10136193E-04  2.00049710E-06 -2.57170469E-06
  1.24968248E-03 -2.64628410E-04  4.19529189E-01  6.62377909E-01  1.88021305E-02
 -1.17522687E-02 -8.32052780E-03 -6.01651637E-04 -1.40667362E-03 -5.15462408E-06
  1.93383978E-03  4.86937567E-03  8.00641826E-06  4.20836143E-04  1.98575454E-03
  8.89506617E-09  6.90307117E-06  2.79399602E-07  2.52624539E-07 -4.37534334E-05
  5.80970396E-05  4.10011272E-04 -2.27189149E-06 -2.77646912E-06  9.56642557E-04
 -8.57685343E-04  9.39262217E-04  1.36979588E-03  1.03442646E-04  1.05428255E-03
  1.32519094E-02 -3.30294366E-05 -3.47581108E-05 -1.10412896E-07  7.64892380E-03
 -2.35591609E-03  4.42755423E-06  5.90641556E-03 -5.75318117E-04 -3.39991090E-05
  2.97597269E-04  1.38451958E-06  1.83233074E-07 -4.72584735E-04  1.47688486E-05
 -2.51978647E-03 -1.52498183E-05 -3.14852771E-06  1.79300774E-03 -4.34281749E-04
  4.53381951E-01  6.29363890E-01  2.09207374E-02 -8.65321393E-03 -2.57919723E-02
  6.29103474E-04  3.84747956E-05  1.79204692E-06  8.44137822E-03  1.00151429E-03
 -1.66079899E-05  1.84027253E-03  1.00058801E-03  1.97878418E-05 -4.62188945E-04
  7.55096199E-07  6.52003156E-08 -6.70981367E-04 -1.40572230E-04  2.38956969E-03
 -9.79056677E-06  1.37130120E-06 -4.82157275E-04 -8.66500575E-04 -2.08729091E-04
 -9.20519553E-04  1.41301561E-03 -1.32725163E-04  2.28393270E-05 -7.34105890E-07
  1.75427075E-04 -6.12772989E-05 -2.34125287E-06 -1.64388725E-04  6.65771618E-03
  1.37025280E-03 -6.01850612E-05  1.14618534E-05  2.35733716E-04  1.73548175E-03
 -1.36121719E-03  1.14520650E-03 -1.64752499E-04  6.61785870E-03  1.38103223E-03
 -6.00495648E-05  1.20445812E-05 -2.35682065E-04  1.72970731E-03 -1.35320517E-03
 -1.13474199E-03 -7.25388237E-05 -1.91387980E-04  7.88023159E-04 -2.14841978E-03
  2.16443931E-03  1.47463454E-04 -5.03347681E-05 -4.36905667E-07  4.23051319E-04
 -2.25793563E-03  8.76271669E-06  4.05372148E-04 -9.01893787E-04  8.32044033E-07
  2.66273624E-04 -8.26047163E-07  1.00974574E-06  1.54714563E-04  3.96612566E-04
  8.34799468E-04 -1.47096554E-06  6.81007058E-06  9.10191824E-04  1.03254411E-03
 -7.25373010E-05 -1.83767665E-04  7.24297443E-04 -1.83651387E-03  1.46956955E-03
  1.03887609E-04  4.66348921E-05 -5.23101496E-07  4.44915448E-04  2.25096251E-03
  8.44635349E-06  1.67323242E-03  9.45333975E-04  5.66375295E-07  2.55657202E-04
 -4.97819281E-07 -9.83443487E-07  2.63282614E-04 -3.43432366E-04  8.42901665E-04
 -2.07239886E-06 -7.09981163E-06  7.96792458E-04 -1.00075104E-03  4.53288340E-01
  6.29192345E-01  2.25488393E-02 -2.27523620E-02 -1.31361163E-02 -7.48742030E-04
  1.21864867E-04 -1.19520899E-05 -2.98549597E-03 -9.35141166E-04  6.22031499E-06
 -2.94087419E-03 -2.26189552E-03 -6.15113970E-06  2.11794281E-04  3.35980622E-06
 -3.20858162E-06 -3.14645460E-04 -3.75237380E-05  1.04665847E-03 -4.57171029E-06
  1.61715348E-06 -1.10970928E-03 -1.11849450E-03 -1.00857033E-03 -1.33651874E-03
 -1.69809741E-04  3.81075515E-03  6.94881984E-03 -2.75830347E-04 -3.78252451E-05
  1.57059884E-07 -4.53046489E-03  3.34330378E-04  6.08343263E-06 -3.62956712E-04
  3.23472267E-03  1.42768627E-05  8.37997404E-05  7.58077361E-07  3.12001994E-07
 -5.43927756E-04 -2.21803263E-05 -1.42354568E-04 -4.77904954E-06  6.43541134E-07
 -1.72031415E-04 -1.56157578E-03 -3.41789684E-04  4.95607060E-03  1.48881136E-03
 -3.53520334E-04 -1.14199001E-03  4.86562811E-07  8.33507966E-04  2.55736264E-03
 -2.70165396E-06 -3.95630423E-04  4.41071998E-03  4.13831852E-04 -3.89126752E-04
  6.39663414E-04 -1.02985751E-03  1.17830877E-03 -1.17359248E-03  2.09175272E-03
 -3.84443630E-04  4.39761847E-03  4.00650117E-04 -3.83789385E-04  6.34961194E-04
  1.02205907E-03  1.17483291E-03 -1.16936567E-03 -2.08877252E-03  1.40048764E-06
  2.54315430E-05 -1.18299812E-04 -2.90148961E-04  1.00854380E-03  1.09099214E-04
 -1.04281271E-04  2.43237413E-07  2.46966894E-04  4.45745063E-04 -2.36858984E-07
 -5.95036020E-04 -2.07661232E-04 -1.71709652E-06 -3.05539381E-05 -3.25045528E-07
  2.34291086E-08 -4.50949455E-05  3.32513570E-05 -2.31100334E-04 -1.74725431E-08
 -1.12378974E-06  7.04359759E-05  1.56912757E-04  1.16356061E-06  3.16974222E-05
 -1.65068914E-04 -1.58535180E-04  1.71076801E-03  9.01131484E-05  1.31903923E-04
  3.01868213E-07  4.85691016E-04 -5.20764906E-04 -1.21906413E-06  2.15144969E-04
 -1.21783989E-03 -1.37045345E-06 -2.69516994E-05 -2.14272996E-07  2.03894278E-08
 -6.03990943E-06 -5.27512939E-05 -3.02359721E-04 -4.85628742E-07  1.34613982E-06
 -8.43945539E-05 -5.36749395E-05 -1.11581485E-02 -2.52083642E-02  5.11775491E-02
 -5.26077937E-02 -2.34481216E-01  3.72618474E-02  2.16777620E-03 -4.02523948E-05
  5.72388392E-04  1.84342015E-02 -2.07762288E-05 -2.11895241E-02  1.01623460E-02
 -1.40767920E-04 -3.78816102E-03 -1.22303410E-05 -3.18641547E-06  9.12322629E-03
  4.57027538E-04 -2.85152627E-02 -5.79073219E-05 -1.95491128E-05 -1.23950046E-02
  1.67456571E-02 -6.26576502E-02 -1.39308934E-01  2.87347494E-01  2.57135095E-01
  2.71638820E-01  9.43650850E-02  3.48434634E-03  2.30354153E-04 -4.78246889E-02
 -1.21665137E-02 -7.79546664E-05 -1.28630986E-01 -3.12384166E-02  1.89267582E-04
 -1.87939016E-02  1.89409975E-05 -7.42832212E-08 -2.51718880E-02 -2.86636253E-03
  1.86795227E-02 -1.34056496E-04 -4.69212100E-05  7.03197040E-02  1.83988038E-02
  1.63127353E-02  2.64102263E-02 -2.95835327E-02  1.74700933E-03  5.03237066E-03
 -6.27423402E-06  1.15149132E-02  1.17307172E-02 -2.59966110E-05  1.65882026E-02
  1.38081873E-02  1.18119386E-03  5.91172189E-04 -2.24216476E-03  3.06328485E-03
 -5.23179835E-03 -4.45556701E-03 -4.08273370E-03  1.65592618E-02  1.39384492E-02
  1.33777191E-03  5.91625895E-04 -2.23624048E-03 -3.07673177E-03 -5.16612687E-03
 -4.50553902E-03  4.07977790E-03 -5.75858063E-02 -1.44753891E-01  2.96056939E-01
  2.64632507E-01 -5.62576526E-02 -5.15952545E-02  1.05013333E-01 -1.93583207E-04
  1.01924513E-02 -1.00419437E-02 -6.25927343E-05  4.06549496E-02 -5.80973083E-02
 -1.14617125E-06 -6.47341587E-03  9.01574435E-06 -3.15764729E-05 -8.35427696E-03
 -1.03952747E-02  1.44803558E-02 -1.50297295E-05  5.38387063E-05  4.20475335E-03
  1.83537100E-02 -5.66753149E-02 -1.42478444E-01  2.91506845E-01  2.59222678E-01
 -4.66232344E-02 -3.93315895E-02 -1.08766246E-01 -1.89944168E-04  6.39955924E-03
  1.07126321E-02 -5.20554281E-05  2.64113377E-02  6.11689434E-02  3.84173303E-05
 -6.47240309E-03  5.14543021E-06  3.21905181E-05 -1.03318400E-02  8.20576372E-03
  1.43161877E-02 -4.39933733E-06 -5.94675896E-05  8.92061452E-03 -1.62408374E-02
 -5.36982932E-04 -1.17863035E-03  2.28966544E-03 -1.04233896E-03 -6.66549098E-03
  7.94833166E-04  1.77786533E-02 -2.35797038E-06 -5.78550917E-03 -1.50418735E-02
 -2.67991718E-05  6.02874965E-03 -1.02576898E-01 -8.72065479E-05 -6.64234830E-05
 -6.07048219E-07 -1.02053695E-05 -4.35306768E-04  5.85844884E-03 -6.31011451E-03
 -8.76445909E-05  1.73261491E-04  2.37688254E-03 -2.83832788E-02 -5.04214995E-04
 -1.15174356E-03  2.35196786E-03  1.07875443E-02 -1.24938428E-02 -1.64317305E-02