polar                                                                   
SP        RM062X                                                      Gen                 
Number of atoms                            I                7
Info1-9                                    I   N=           9
          98          97           0           0           0         110
           1          18        -502
Charge                                     I               -1
Multiplicity                               I                1
Number of electrons                        I               32
Number of alpha electrons                  I               16
Number of beta electrons                   I               16
Number of basis functions                  I              123
Number of independent functions            I              123
Number of point charges in /Mol/           I                0
Number of translation vectors              I                0
Atomic numbers                             I   N=           7
           6           6           1           1           1           8
           8
Nuclear charges                            R   N=           7
  6.00000000E+00  6.00000000E+00  1.00000000E+00  1.00000000E+00  1.00000000E+00
  8.00000000E+00  8.00000000E+00
Current cartesian coordinates              R   N=          21
 -2.54428286E+00 -1.13586773E-01  2.85538053E-04  3.81933111E-01  3.90875389E-03
 -2.34836320E-03 -3.21788690E+00 -2.06804530E+00  1.16054731E-03 -3.27268314E+00
  8.76401845E-01 -1.66675025E+00 -3.26976620E+00  8.76884631E-01  1.66831300E+00
  1.53794963E+00 -2.09888477E+00  6.06601768E-04  1.30385471E+00  2.22048813E+00
  6.00104543E-04
Force Field                                I                0
Int Atom Types                             I   N=           7
           0           0           0           0           0           0
           0
MM charges                                 R   N=           7
  0.00000000E+00  0.00000000E+00  0.00000000E+00  0.00000000E+00  0.00000000E+00
  0.00000000E+00  0.00000000E+00
Integer atomic weights                     I   N=           7
          12          12           1           1           1          16
          16
Real atomic weights                        R   N=           7
  1.20000000E+01  1.20000000E+01  1.00782504E+00  1.00782504E+00  1.00782504E+00
  1.59949146E+01  1.59949146E+01
Atom fragment info                         I   N=           7
           0           0           0           0           0           0
           0
Atom residue num                           I   N=           7
           0           0           0           0           0           0
           0
Nuclear spins                              I   N=           7
           0           0           1           1           1           0
           0
Nuclear ZEff                               R   N=           7
 -3.60000000E+00 -3.60000000E+00 -1.00000000E+00 -1.00000000E+00 -1.00000000E+00
 -5.60000000E+00 -5.60000000E+00
Nuclear ZNuc                               R   N=           7
  6.00000000E+00  6.00000000E+00  1.00000000E+00  1.00000000E+00  1.00000000E+00
  8.00000000E+00  8.00000000E+00
Nuclear QMom                               R   N=           7
  0.00000000E+00  0.00000000E+00  0.00000000E+00  0.00000000E+00  0.00000000E+00
  0.00000000E+00  0.00000000E+00
Nuclear GFac                               R   N=           7
  0.00000000E+00  0.00000000E+00  2.79284600E+00  2.79284600E+00  2.79284600E+00
  0.00000000E+00  0.00000000E+00
MicOpt                                     I   N=           7
          -1          -1          -1          -1          -1          -1
          -1
Number of contracted shells                I               55
Number of primitive shells                 I              110
Pure/Cartesian d shells                    I                0
Pure/Cartesian f shells                    I                0
Highest angular momentum                   I                2
Largest degree of contraction              I                5
Shell types                                I   N=          55
           0           0           0           0           0           1
           1           1          -2          -2           0           0
           0           0           0           1           1           1
          -2          -2           0           0           0           1
           1           0           0           0           1           1
           0           0           0           1           1           0
           0           0           0           0           1           1
           1          -2          -2           0           0           0
           0           0           1           1           1          -2
          -2
Number of primitives per shell             I   N=          55
           5           2           1           1           1           4
           1           1           2           2           5           2
           1           1           1           4           1           1
           2           2           4           1           1           2
           2           4           1           1           2           2
           4           1           1           2           2           5
           2           1           1           1           4           1
           1           2           2           5           2           1
           1           1           4           1           1           2
           2
Shell to atom map                          I   N=          55
           1           1           1           1           1           1
           1           1           1           1           2           2
           2           2           2           2           2           2
           2           2           3           3           3           3
           3           4           4           4           4           4
           5           5           5           5           5           6
           6           6           6           6           6           6
           6           6           6           7           7           7
           7           7           7           7           7           7
           7
Primitive exponents                        R   N=         110
  5.24063530E+03  7.82204800E+02  1.78350830E+02  5.08159420E+01  1.68235620E+01
  6.17577600E+00  2.41804900E+00  5.11900000E-01  1.56590000E-01  4.79000000E-02
  1.88418000E+01  4.15924000E+00  1.20671000E+00  3.85540000E-01  1.21940000E-01
  3.85680000E-02  1.20670000E+00  3.85500000E-01  1.21900000E-01  3.86000000E-02
  5.24063530E+03  7.82204800E+02  1.78350830E+02  5.08159420E+01  1.68235620E+01
  6.17577600E+00  2.41804900E+00  5.11900000E-01  1.56590000E-01  4.79000000E-02
  1.88418000E+01  4.15924000E+00  1.20671000E+00  3.85540000E-01  1.21940000E-01
  3.85680000E-02  1.20670000E+00  3.85500000E-01  1.21900000E-01  3.86000000E-02
  3.38650140E+01  5.09478800E+00  1.15878600E+00  3.25840000E-01  1.02741000E-01
  3.24000000E-02  1.15880000E+00  3.25800000E-01  1.02700000E-01  3.24000000E-02
  3.38650140E+01  5.09478800E+00  1.15878600E+00  3.25840000E-01  1.02741000E-01
  3.24000000E-02  1.15880000E+00  3.25800000E-01  1.02700000E-01  3.24000000E-02
  3.38650140E+01  5.09478800E+00  1.15878600E+00  3.25840000E-01  1.02741000E-01
  3.24000000E-02  1.15880000E+00  3.25800000E-01  1.02700000E-01  3.24000000E-02
  1.06622850E+04  1.59970970E+03  3.64725260E+02  1.03651790E+02  3.39058050E+01
  1.22874690E+01  4.75680500E+00  1.00427100E+00  3.00686000E-01  9.00300000E-02
  3.48564630E+01  7.84313100E+00  2.30624900E+00  7.23164000E-01  2.14882000E-01
  6.38500000E-02  2.30620000E+00  7.23200000E-01  2.14900000E-01  6.39000000E-02
  1.06622850E+04  1.59970970E+03  3.64725260E+02  1.03651790E+02  3.39058050E+01
  1.22874690E+01  4.75680500E+00  1.00427100E+00  3.00686000E-01  9.00300000E-02
  3.48564630E+01  7.84313100E+00  2.30624900E+00  7.23164000E-01  2.14882000E-01
  6.38500000E-02  2.30620000E+00  7.23200000E-01  2.14900000E-01  6.39000000E-02
Contraction coefficients                   R   N=         110
  2.06539993E-03  1.59324554E-02  8.01119476E-02  2.87877514E-01  7.03009673E-01
  6.94067370E-01  3.40077856E-01  1.00000000E+00  1.00000000E+00  1.00000000E+00
  1.80615059E-02  1.12214925E-01  3.75541979E-01  6.49536597E-01  1.00000000E+00
  1.00000000E+00  2.67978866E-01  8.19993920E-01  4.83796365E-01  6.39336711E-01
  2.06539993E-03  1.59324554E-02  8.01119476E-02  2.87877514E-01  7.03009673E-01
  6.94067370E-01  3.40077856E-01  1.00000000E+00  1.00000000E+00  1.00000000E+00
  1.80615059E-02  1.12214925E-01  3.75541979E-01  6.49536597E-01  1.00000000E+00
  1.00000000E+00  2.67978866E-01  8.19993920E-01  4.83796365E-01  6.39336711E-01
  8.76044950E-03  6.54232910E-02  2.92851374E-01  7.27211150E-01  1.00000000E+00
  1.00000000E+00  1.86447366E-01  8.73088966E-01  9.76214574E-01  3.48056130E-02
  8.76044950E-03  6.54232910E-02  2.92851374E-01  7.27211150E-01  1.00000000E+00
  1.00000000E+00  1.86447366E-01  8.73088966E-01  9.76214574E-01  3.48056130E-02
  8.76044950E-03  6.54232910E-02  2.92851374E-01  7.27211150E-01  1.00000000E+00
  1.00000000E+00  1.86447366E-01  8.73088966E-01  9.76214574E-01  3.48056130E-02
  1.90604745E-03  1.46782352E-02  7.43263084E-02  2.75759025E-01  7.19364732E-01
  6.69996511E-01  3.66229217E-01  1.00000000E+00  1.00000000E+00  1.00000000E+00
  1.99439284E-02  1.25155543E-01  3.92261182E-01  6.27670401E-01  1.00000000E+00
  1.00000000E+00  2.83613619E-01  8.10264660E-01  6.73833443E-01  4.58004278E-01
  1.90604745E-03  1.46782352E-02  7.43263084E-02  2.75759025E-01  7.19364732E-01
  6.69996511E-01  3.66229217E-01  1.00000000E+00  1.00000000E+00  1.00000000E+00
  1.99439284E-02  1.25155543E-01  3.92261182E-01  6.27670401E-01  1.00000000E+00
  1.00000000E+00  2.83613619E-01  8.10264660E-01  6.73833443E-01  4.58004278E-01
Coordinates of each shell                  R   N=         165
 -2.54428286E+00 -1.13586773E-01  2.85538053E-04 -2.54428286E+00 -1.13586773E-01
  2.85538053E-04 -2.54428286E+00 -1.13586773E-01  2.85538053E-04 -2.54428286E+00
 -1.13586773E-01  2.85538053E-04 -2.54428286E+00 -1.13586773E-01  2.85538053E-04
 -2.54428286E+00 -1.13586773E-01  2.85538053E-04 -2.54428286E+00 -1.13586773E-01
  2.85538053E-04 -2.54428286E+00 -1.13586773E-01  2.85538053E-04 -2.54428286E+00
 -1.13586773E-01  2.85538053E-04 -2.54428286E+00 -1.13586773E-01  2.85538053E-04
  3.81933111E-01  3.90875389E-03 -2.34836320E-03  3.81933111E-01  3.90875389E-03
 -2.34836320E-03  3.81933111E-01  3.90875389E-03 -2.34836320E-03  3.81933111E-01
  3.90875389E-03 -2.34836320E-03  3.81933111E-01  3.90875389E-03 -2.34836320E-03
  3.81933111E-01  3.90875389E-03 -2.34836320E-03  3.81933111E-01  3.90875389E-03
 -2.34836320E-03  3.81933111E-01  3.90875389E-03 -2.34836320E-03  3.81933111E-01
  3.90875389E-03 -2.34836320E-03  3.81933111E-01  3.90875389E-03 -2.34836320E-03
 -3.21788690E+00 -2.06804530E+00  1.16054731E-03 -3.21788690E+00 -2.06804530E+00
  1.16054731E-03 -3.21788690E+00 -2.06804530E+00  1.16054731E-03 -3.21788690E+00
 -2.06804530E+00  1.16054731E-03 -3.21788690E+00 -2.06804530E+00  1.16054731E-03
 -3.27268314E+00  8.76401845E-01 -1.66675025E+00 -3.27268314E+00  8.76401845E-01
 -1.66675025E+00 -3.27268314E+00  8.76401845E-01 -1.66675025E+00 -3.27268314E+00
  8.76401845E-01 -1.66675025E+00 -3.27268314E+00  8.76401845E-01 -1.66675025E+00
 -3.26976620E+00  8.76884631E-01  1.66831300E+00 -3.26976620E+00  8.76884631E-01
  1.66831300E+00 -3.26976620E+00  8.76884631E-01  1.66831300E+00 -3.26976620E+00
  8.76884631E-01  1.66831300E+00 -3.26976620E+00  8.76884631E-01  1.66831300E+00
  1.53794963E+00 -2.09888477E+00  6.06601768E-04  1.53794963E+00 -2.09888477E+00
  6.06601768E-04  1.53794963E+00 -2.09888477E+00  6.06601768E-04  1.53794963E+00
 -2.09888477E+00  6.06601768E-04  1.53794963E+00 -2.09888477E+00  6.06601768E-04
  1.53794963E+00 -2.09888477E+00  6.06601768E-04  1.53794963E+00 -2.09888477E+00
  6.06601768E-04  1.53794963E+00 -2.09888477E+00  6.06601768E-04  1.53794963E+00
 -2.09888477E+00  6.06601768E-04  1.53794963E+00 -2.09888477E+00  6.06601768E-04
  1.30385471E+00  2.22048813E+00  6.00104543E-04  1.30385471E+00  2.22048813E+00
  6.00104543E-04  1.30385471E+00  2.22048813E+00  6.00104543E-04  1.30385471E+00
  2.22048813E+00  6.00104543E-04  1.30385471E+00  2.22048813E+00  6.00104543E-04
  1.30385471E+00  2.22048813E+00  6.00104543E-04  1.30385471E+00  2.22048813E+00
  6.00104543E-04  1.30385471E+00  2.22048813E+00  6.00104543E-04  1.30385471E+00
  2.22048813E+00  6.00104543E-04  1.30385471E+00  2.22048813E+00  6.00104543E-04
Constraint Structure                       R   N=          21
 -2.54428286E+00 -1.13586773E-01  2.85538053E-04  3.81933111E-01  3.90875389E-03
 -2.34836320E-03 -3.21788690E+00 -2.06804530E+00  1.16054731E-03 -3.27268314E+00
  8.76401845E-01 -1.66675025E+00 -3.26976620E+00  8.76884631E-01  1.66831300E+00
  1.53794963E+00 -2.09888477E+00  6.06601768E-04  1.30385471E+00  2.22048813E+00
  6.00104543E-04
Num ILSW                                   I              100
ILSW                                       I   N=         100
           0           0           0           0           2           0
           0           0           0           0        4336          -1
           0           0           0           0           0           0
           0           0           0           0           0           0
           1           0           0           0           0           0
           0           0      100000           0          -1           0
           0           0           0           0           0           0
           0           0           0           1           0           0
           0           0           1           0           0           0
           0           0           4          41           0           0
           0           0          55           0           0           0
           0           0           0           7           0           0
           0           0           0           0           0           0
           0           0           0           0           0           0
           0           0           0           0           0           0
           0           0           0           0           0           0
           0           0           0           0
Num RLSW                                   I               41
RLSW                                       R   N=          41
  1.00000000E+00  1.00000000E+00  1.00000000E+00  1.00000000E+00  5.40000000E-01
  0.00000000E+00  0.00000000E+00  1.00000000E+00  0.00000000E+00  0.00000000E+00
  0.00000000E+00  0.00000000E+00  1.00000000E+00  0.00000000E+00  0.00000000E+00
  0.00000000E+00  0.00000000E+00  1.00000000E+00  0.00000000E+00  0.00000000E+00
  0.00000000E+00  0.00000000E+00  1.00000000E+00  0.00000000E+00  0.00000000E+00
  0.00000000E+00  0.00000000E+00  1.00000000E+00  0.00000000E+00  0.00000000E+00
  0.00000000E+00  0.00000000E+00  1.00000000E+00  0.00000000E+00  0.00000000E+00
  0.00000000E+00  0.00000000E+00  0.00000000E+00  1.00000000E+00  1.00000000E+00
  0.00000000E+00
MxBond                                     I                4
NBond                                      I   N=           7
           4           3           1           1           1           1
           1
IBond                                      I   N=          28
           2           3           4           5           1           6
           7           0           1           0           0           0
           1           0           0           0           1           0
           0           0           2           0           0           0
           2           0           0           0
RBond                                      R   N=          28
  1.00000000E+00  1.00000000E+00  1.00000000E+00  1.00000000E+00  1.00000000E+00
  2.00000000E+00  2.00000000E+00  0.00000000E+00  1.00000000E+00  0.00000000E+00
  0.00000000E+00  0.00000000E+00  1.00000000E+00  0.00000000E+00  0.00000000E+00
  0.00000000E+00  1.00000000E+00  0.00000000E+00  0.00000000E+00  0.00000000E+00
  2.00000000E+00  0.00000000E+00  0.00000000E+00  0.00000000E+00  2.00000000E+00
  0.00000000E+00  0.00000000E+00  0.00000000E+00
Virial Ratio                               R      2.005992037982082E+00
SCF Energy                                 R     -2.284994602208317E+02
Total Energy                               R     -2.284994602208317E+02
RMS Density                                R      7.563729167435587E-09
External E-field                           R   N=          35
  0.00000000E+00  8.00000000E-04  0.00000000E+00  0.00000000E+00  0.00000000E+00
  0.00000000E+00  0.00000000E+00  0.00000000E+00  0.00000000E+00  0.00000000E+00
  0.00000000E+00  0.00000000E+00  0.00000000E+00  0.00000000E+00  0.00000000E+00
  0.00000000E+00  0.00000000E+00  0.00000000E+00  0.00000000E+00  0.00000000E+00
  0.00000000E+00  0.00000000E+00  0.00000000E+00  0.00000000E+00  0.00000000E+00
  0.00000000E+00  0.00000000E+00  0.00000000E+00  0.00000000E+00  0.00000000E+00
  0.00000000E+00  0.00000000E+00  0.00000000E+00  0.00000000E+00  0.00000000E+00
IOpCl                                      I                0
IROHF                                      I                0
Alpha Orbital Energies                     R   N=         123
 -1.93769403E+01 -1.93745668E+01 -1.04406164E+01 -1.03660809E+01 -9.34338859E-01
 -8.44639150E-01 -6.25763028E-01 -3.88206215E-01 -3.16935333E-01 -3.11353640E-01
 -3.03314995E-01 -2.59232017E-01 -2.31090324E-01 -1.14390121E-01 -1.08669631E-01
 -1.07945490E-01  1.13539431E-01  1.25735590E-01  1.30582017E-01  1.55400518E-01
  1.86671899E-01  1.91663263E-01  1.93914417E-01  1.96260557E-01  1.97107723E-01
  2.37249038E-01  2.51052865E-01  2.59842048E-01  2.67901516E-01  2.84159050E-01
  3.05533774E-01  3.29952334E-01  3.35169858E-01  3.43352837E-01  3.57022889E-01
  3.63685712E-01  3.78320542E-01  3.92458033E-01  3.95594347E-01  3.97556971E-01
  4.30225588E-01  4.44219337E-01  4.64584174E-01  4.71867633E-01  4.76531573E-01
  4.82876735E-01  4.86705528E-01  4.92825064E-01  4.94820132E-01  5.12776773E-01
  5.12917530E-01  5.33113806E-01  5.58118858E-01  5.60993920E-01  5.90746658E-01
  6.00341496E-01  6.20789228E-01  6.39774664E-01  6.81248319E-01  7.20172207E-01
  7.42374612E-01  7.59585267E-01  7.71678148E-01  8.03752118E-01  8.11016761E-01
  8.24429882E-01  8.36478337E-01  8.49376650E-01  9.30469986E-01  9.39544058E-01
  9.47015168E-01  9.79032695E-01  9.87829198E-01  1.00904665E+00  1.01996064E+00
  1.02676150E+00  1.06517585E+00  1.07903794E+00  1.08554942E+00  1.13234710E+00
  1.16912241E+00  1.19206968E+00  1.23203978E+00  1.27307616E+00  1.29773469E+00
  1.39408354E+00  1.39599029E+00  1.44745364E+00  1.45260849E+00  1.53579748E+00
  1.56886238E+00  1.60850591E+00  1.63074719E+00  1.68116668E+00  1.68659022E+00
  1.74622664E+00  1.77644893E+00  1.80126928E+00  1.83591586E+00  2.00039944E+00
  2.04618681E+00  2.20001304E+00  2.21009028E+00  2.28442816E+00  2.32684117E+00
  2.45186090E+00  2.47975878E+00  2.54564060E+00  2.60557670E+00  2.63358740E+00
  2.68357038E+00  2.73702106E+00  2.83189725E+00  2.87649383E+00  3.15599483E+00
  3.18711523E+00  3.33375278E+00  3.40701680E+00  3.54014051E+00  2.19442304E+01
  2.21975532E+01  4.30540938E+01  4.31046045E+01
Alpha MO coefficients                      R   N=       15129
 -9.11827693E-06  4.86547671E-05 -9.72346011E-05  8.55899983E-04  5.10822966E-04
 -2.32799075E-04 -2.78498467E-05  5.74467219E-07 -1.45714098E-03  1.56393167E-03
  2.30880213E-06 -3.12203762E-03 -4.66378053E-03  1.92660148E-05 -6.75775557E-05
  3.99733340E-07 -7.87260148E-07 -2.97749776E-04  2.64012046E-04  1.42226763E-03
  9.40238881E-06  6.69930338E-06 -5.42671147E-05 -2.35050507E-03 -1.97565413E-05
  4.51517222E-05  3.30300866E-04  1.33998798E-02  2.44038922E-03  3.83703964E-04
 -3.75592628E-04  2.36682209E-06  6.47014657E-03 -8.05365930E-03  1.30006748E-05
  2.21584684E-03  5.75880795E-03 -1.96448317E-05 -1.67786995E-04  1.00296672E-06
  1.04955207E-06  4.89192493E-04  6.12712675E-04 -3.10412844E-04  1.22126516E-05
 -1.08141250E-06 -1.91723249E-03 -2.92996917E-03 -4.68075573E-06  3.15911672E-03
  5.06978526E-05 -4.47339657E-05 -1.61137741E-04  2.43203935E-07 -2.65573104E-04
  7.12297554E-04  3.17672120E-06  2.28108510E-05 -8.60732553E-04 -1.19453819E-03
  2.51308894E-04 -8.87684146E-05  1.63138454E-05  7.88783783E-04  1.08151550E-04
 -2.82525868E-04  2.45314621E-05 -8.76386943E-04 -1.19226100E-03  2.49592401E-04
 -8.88686706E-05 -1.61777142E-05  7.82808184E-04  1.07693572E-04  2.85900508E-04
  4.19530311E-01  6.62362075E-01  1.89373987E-02 -1.24355150E-02 -8.83673311E-03
 -7.10675726E-04  1.32995094E-03 -2.66316120E-06  2.42365477E-03 -4.98512970E-03
  7.50553482E-06  9.11519087E-05 -2.18471246E-03  2.83561110E-06  8.02423207E-06
  1.51461421E-07 -1.31817926E-07 -4.53947193E-05 -5.63711522E-05  4.27241112E-04
 -2.18369571E-06  2.56193482E-06  1.00108059E-03  1.08041138E-03 -2.24675557E-03
 -3.53694830E-03 -7.83803418E-05 -4.38438988E-04  2.31064082E-03  7.48697604E-05
  8.14078833E-05  6.26063760E-07 -1.06566328E-03  1.48492616E-03 -4.35868746E-06
 -1.01515068E-03 -6.62992331E-04 -3.67303356E-06  1.24653116E-05  4.50074556E-07
 -4.34541548E-07  1.26048587E-04  7.27511702E-05  1.88964078E-04  1.04043642E-06
  3.01753250E-06  1.30808270E-03  3.07986661E-04 -1.10939698E-05  5.87049459E-05
 -2.34617630E-04  1.08345607E-03  2.05459988E-03 -2.86043025E-04 -4.57537200E-05
  5.64923459E-07  8.52170565E-04 -2.64844785E-03 -1.40920021E-05 -1.02391163E-03
  1.33660270E-03  2.90349357E-05  5.52403764E-05  5.55195253E-07  1.11203432E-06
 -2.39954500E-04 -1.97882379E-04  1.21330094E-03  1.28187477E-05 -3.20620152E-06
  4.42295694E-04 -2.63263440E-04 -2.08679750E-05  4.99955248E-05  3.95429400E-04
  1.01490139E-02 -1.37119898E-03  3.69595170E-04  4.19404424E-04  2.33098843E-06
  5.62682493E-03  9.68112371E-03  9.95530194E-06  2.00212575E-03 -1.05743805E-03
 -2.80458976E-05 -1.01587745E-04  7.35512282E-07 -1.01324426E-06  6.24981755E-04
 -5.18864200E-04 -4.34888613E-04  1.55539622E-05  6.73119548E-06 -1.59471872E-03
  5.90450676E-04 -1.00688315E-04 -4.09942213E-04  9.77291684E-04  1.06733422E-04
  5.42298611E-05  1.30875230E-06 -1.30657206E-04 -5.02141994E-05 -1.64478000E-06
  8.37387865E-07  1.18739291E-03 -8.39700395E-04 -1.57260106E-04  7.43712628E-05
  3.74391021E-05  3.70116267E-04  3.20719731E-04  5.83834332E-04  1.48013224E-06
  1.24495415E-03 -8.37755946E-04 -1.57814844E-04  7.29527160E-05 -3.66904636E-05
  3.70650967E-04  3.12876132E-04 -6.03192678E-04  2.24654149E-03  3.55789878E-03
  1.05733520E-04 -3.65370593E-04  3.15139283E-03  8.49187130E-05 -6.34422860E-05
  5.70527480E-07 -1.19228095E-03 -1.35084675E-03 -4.13194752E-06 -1.55885250E-03
  5.38008540E-04 -3.23000417E-06  2.64984453E-07  2.92251548E-07  4.88254943E-07
  1.31490920E-04 -3.06562105E-05  2.10441655E-04  2.02230168E-06 -3.06833340E-06
  1.24931243E-03 -2.64298779E-04  4.19529398E-01  6.62378120E-01  1.88027114E-02
 -1.17536685E-02 -8.31590640E-03 -5.97156437E-04 -1.40607999E-03 -2.60205025E-06
  1.92859994E-03  4.86906976E-03  6.05679922E-06  4.16626123E-04  1.98530344E-03
 -4.11942124E-07  7.03708716E-06  2.48697359E-07  1.42443009E-07 -4.37809454E-05
  5.77238618E-05  4.09482060E-04 -2.15732469E-06 -2.15471403E-06  9.57426589E-04
 -8.55566807E-04  9.19745709E-04  1.34246244E-03  1.01216287E-04  1.05270843E-03
  1.31813890E-02 -3.12418098E-05 -3.46898361E-05 -4.75461961E-08  7.67333780E-03
 -2.34961074E-03  3.49377518E-06  5.91348005E-03 -5.79809741E-04 -3.56260193E-05
  2.95431898E-04  1.41529289E-06  1.66954755E-07 -4.68861438E-04  1.50516417E-05
 -2.52572812E-03 -1.53111649E-05 -3.34919826E-06  1.79674991E-03 -4.33814043E-04
  4.53381878E-01  6.29363556E-01  2.09245068E-02 -8.59561540E-03 -2.57150117E-02
  6.49751560E-04  3.85593924E-05  1.91495934E-06  8.46128484E-03  1.00220652E-03
 -1.62453859E-05  1.80434924E-03  1.00247257E-03  2.11217099E-05 -4.63705696E-04
  7.58808990E-07  6.07546143E-08 -6.76435657E-04 -1.41147007E-04  2.38782436E-03
 -9.97727544E-06  1.36963671E-06 -4.64346895E-04 -8.66097793E-04 -2.08109844E-04
 -8.99419438E-04  1.41169795E-03 -1.32770201E-04  2.31178271E-05 -7.48374930E-07
  1.75025546E-04 -5.38721002E-05 -2.20648712E-06 -1.63671589E-04  6.66115404E-03
  1.37178150E-03 -6.07498414E-05  1.12521337E-05  2.35722822E-04  1.73149337E-03
 -1.36153063E-03  1.14512606E-03 -1.64050898E-04  6.62387445E-03  1.38444993E-03
 -6.05745988E-05  1.18112432E-05 -2.35697603E-04  1.72596925E-03 -1.35381970E-03
 -1.13505246E-03 -7.25375599E-05 -1.91573908E-04  7.90555023E-04 -2.16009651E-03
  2.12354991E-03  1.47962444E-04 -5.07488646E-05 -4.54154740E-07  4.29660877E-04
 -2.27717597E-03  8.89163568E-06  4.12449145E-04 -9.21069315E-04  4.77207861E-07
  2.67053015E-04 -8.53097847E-07  1.06183416E-06  1.55659520E-04  3.97862370E-04
  8.39941834E-04 -1.45073345E-06  6.83121715E-06  9.14816129E-04  1.03783232E-03
 -7.25370952E-05 -1.83969597E-04  7.26807209E-04 -1.84790457E-03  1.43331347E-03
  1.04290160E-04  4.70555541E-05 -5.39564702E-07  4.49345836E-04  2.26952969E-03
  8.56108717E-06  1.67749351E-03  9.62389441E-04  2.55963983E-07  2.56368907E-04
 -5.18659414E-07 -1.03673752E-06  2.64338114E-04 -3.44340032E-04  8.47727417E-04
 -2.06594842E-06 -7.12270623E-06  8.02007725E-04 -1.00445004E-03  4.53288704E-01
  6.29192443E-01  2.25456241E-02 -2.27390680E-02 -1.30934900E-02 -7.31464820E-04
  1.21993230E-04  2.40687830E-07 -2.99689571E-03 -9.41331799E-04  2.26927280E-06
 -2.95973179E-03 -2.25922647E-03 -1.24083993E-05  2.10200418E-04  5.35124451E-07
 -1.04943044E-07 -3.11386788E-04 -3.71518563E-05  1.05347383E-03 -3.35996666E-06
  2.90986121E-07 -1.11418311E-03 -1.12056921E-03 -9.89090424E-04 -1.30915184E-03
 -1.68234045E-04  3.77527078E-03  6.91345859E-03 -2.75461412E-04 -3.77707496E-05
  1.12185215E-07 -4.53039671E-03  3.34864837E-04  8.08653531E-06 -3.33492345E-04
  3.23520446E-03  1.45761008E-05  8.67141667E-05  6.84988935E-07  5.66401508E-09
 -5.46918482E-04 -2.26147865E-05 -1.38640823E-04 -6.22871399E-06  9.80942794E-07
 -1.88808489E-04 -1.56327835E-03 -3.38955309E-04  4.94284763E-03  1.48819569E-03
 -3.52888335E-04 -1.13920325E-03  3.07954682E-07  8.32532873E-04  2.55044491E-03
 -1.08133980E-06 -3.87694899E-04  4.41256833E-03  3.99289813E-04 -3.86481875E-04
  6.35793409E-04 -1.02275584E-03  1.18259357E-03 -1.17201632E-03  2.09154681E-03
 -3.87173627E-04  4.39997049E-03  4.01223820E-04 -3.84368539E-04  6.36247652E-04
  1.02312015E-03  1.17836068E-03 -1.16992998E-03 -2.08807946E-03  1.39849598E-06
  2.55547172E-05 -1.19298053E-04 -2.87961557E-04  1.02968492E-03  1.09374971E-04
 -1.04663207E-04  2.23055746E-07  2.44337946E-04  4.53887947E-04 -7.42107834E-07
 -6.01177440E-04 -1.97243568E-04 -1.64258229E-06 -3.07091582E-05 -3.24489106E-07
 -5.12858489E-08 -4.53467360E-05  3.33633775E-05 -2.34152716E-04  4.85585760E-07
 -1.24421701E-06  6.92897709E-05  1.54877193E-04  1.16024876E-06  3.18525600E-05
 -1.66339860E-04 -1.55239247E-04  1.72886258E-03  9.02773724E-05  1.32241408E-04
  3.10879180E-07  4.83971965E-04 -5.29020337E-04 -1.45935164E-06  2.12565888E-04
 -1.22700643E-03 -6.65033493E-07 -2.71277351E-05 -1.63859629E-07 -2.40738892E-08
 -6.18058435E-06 -5.28327186E-05 -3.05359238E-04 -8.48749389E-07  1.39328985E-06
 -8.63397635E-05 -5.25766039E-05 -1.10860097E-02 -2.50465423E-02  5.08414521E-02
 -5.25602269E-02 -2.34269533E-01  3.71534391E-02  2.15539727E-03 -1.64854640E-05
  5.30225137E-04  1.84521054E-02  1.31595833E-05 -2.12374145E-02  1.01456019E-02
 -1.78458658E-04 -3.78511261E-03 -1.04766213E-05 -1.05050500E-06  9.11644171E-03
  4.54076673E-04 -2.85053772E-02 -1.07011651E-04 -1.37901661E-05 -1.24241565E-02
  1.67445402E-02 -6.26262626E-02 -1.39237801E-01  2.87203761E-01  2.56854067E-01
  2.71524457E-01  9.46050908E-02  3.41152702E-03  2.92796980E-04 -4.78257963E-02
 -1.21693345E-02  1.93069131E-06 -1.28623699E-01 -3.12264007E-02  2.76570050E-04
 -1.87776550E-02  2.40173461E-05  8.17308210E-07 -2.51678002E-02 -2.87574828E-03
  1.87004711E-02 -1.94296828E-04 -3.58678855E-05  7.02839395E-02  1.84216975E-02
  1.61694448E-02  2.63604316E-02 -2.96624116E-02  1.73787004E-03  5.00199449E-03
 -4.48088567E-06  1.15233292E-02  1.17273385E-02 -2.26440431E-05  1.64227670E-02
  1.38445219E-02  1.27643181E-03  5.79107638E-04 -2.22721162E-03  3.03851583E-03
 -5.21688237E-03 -4.47131684E-03 -4.05779055E-03  1.64270744E-02  1.37445902E-02
  1.22599531E-03  5.81924942E-04 -2.22139426E-03 -3.04594073E-03 -5.17750114E-03
 -4.48160416E-03  4.12206613E-03 -5.76236030E-02 -1.44848881E-01  2.96235699E-01
  2.64883359E-01 -5.61519468E-02 -5.15057569E-02  1.05060715E-01 -1.16438617E-04
  1.02791124E-02 -1.00113050E-02  2.92000147E-05  4.07366366E-02 -5.80946507E-02
  5.24648667E-05 -6.47573593E-03  7.82920002E-06 -2.88877827E-05 -8.36428255E-03
 -1.03923934E-02  1.44923120E-02 -1.41226949E-05  6.66608666E-05  4.19433622E-03
  1.83705735E-02 -5.66733687E-02 -1.42473538E-01  2.91484298E-01  2.59272355E-01
 -4.64666806E-02 -3.92077837E-02 -1.08756484E-01 -1.13842206E-04  6.48464203E-03
  1.06621365E-02  3.38526730E-05  2.64509970E-02  6.11122286E-02  6.97135455E-05
 -6.47009262E-03  3.88934232E-06  2.89677092E-05 -1.03378338E-02  8.19440762E-03
  1.43119176E-02 -2.97926396E-07 -6.74630536E-05  8.89603622E-03 -1.62453446E-02
 -5.37180698E-04 -1.17909114E-03  2.28905987E-03 -1.03319737E-03 -6.61948647E-03
  8.08430376E-04  1.76954263E-02 -7.57720622E-07 -5.76887662E-03 -1.50585807E-02
 -5.84283880E-05  5.99462628E-03 -1.02734869E-01 -1.15873860E-04 -6.79391611E-05
  6.13261530E-07 -8.54968298E-06 -4.31376656E-04  5.85205531E-03 -6.27857997E-03
 -1.09152714E-04  2.11935825E-04  2.36682328E-03 -2.84631455E-02 -5.25142244E-04
 -1.19836279E-03  2.44963428E-03  1.08634939E-02 -1.23995671E-02 -1.63833709E-02