polar                                                                   
SP        RM062X                                                      Gen                 
Number of atoms                            I                7
Info1-9                                    I   N=           9
          98          97           0           0           0         110
           1          18        -502
Charge                                     I               -1
Multiplicity                               I                1
Number of electrons                        I               32
Number of alpha electrons                  I               16
Number of beta electrons                   I               16
Number of basis functions                  I              123
Number of independent functions            I              123
Number of point charges in /Mol/           I                0
Number of translation vectors              I                0
Atomic numbers                             I   N=           7
           6           6           1           1           1           8
           8
Nuclear charges                            R   N=           7
  6.00000000E+00  6.00000000E+00  1.00000000E+00  1.00000000E+00  1.00000000E+00
  8.00000000E+00  8.00000000E+00
Current cartesian coordinates              R   N=          21
 -2.54428286E+00 -1.13586773E-01  2.85538053E-04  3.81933111E-01  3.90875389E-03
 -2.34836320E-03 -3.21788690E+00 -2.06804530E+00  1.16054731E-03 -3.27268314E+00
  8.76401845E-01 -1.66675025E+00 -3.26976620E+00  8.76884631E-01  1.66831300E+00
  1.53794963E+00 -2.09888477E+00  6.06601768E-04  1.30385471E+00  2.22048813E+00
  6.00104543E-04
Force Field                                I                0
Int Atom Types                             I   N=           7
           0           0           0           0           0           0
           0
MM charges                                 R   N=           7
  0.00000000E+00  0.00000000E+00  0.00000000E+00  0.00000000E+00  0.00000000E+00
  0.00000000E+00  0.00000000E+00
Integer atomic weights                     I   N=           7
          12          12           1           1           1          16
          16
Real atomic weights                        R   N=           7
  1.20000000E+01  1.20000000E+01  1.00782504E+00  1.00782504E+00  1.00782504E+00
  1.59949146E+01  1.59949146E+01
Atom fragment info                         I   N=           7
           0           0           0           0           0           0
           0
Atom residue num                           I   N=           7
           0           0           0           0           0           0
           0
Nuclear spins                              I   N=           7
           0           0           1           1           1           0
           0
Nuclear ZEff                               R   N=           7
 -3.60000000E+00 -3.60000000E+00 -1.00000000E+00 -1.00000000E+00 -1.00000000E+00
 -5.60000000E+00 -5.60000000E+00
Nuclear ZNuc                               R   N=           7
  6.00000000E+00  6.00000000E+00  1.00000000E+00  1.00000000E+00  1.00000000E+00
  8.00000000E+00  8.00000000E+00
Nuclear QMom                               R   N=           7
  0.00000000E+00  0.00000000E+00  0.00000000E+00  0.00000000E+00  0.00000000E+00
  0.00000000E+00  0.00000000E+00
Nuclear GFac                               R   N=           7
  0.00000000E+00  0.00000000E+00  2.79284600E+00  2.79284600E+00  2.79284600E+00
  0.00000000E+00  0.00000000E+00
MicOpt                                     I   N=           7
          -1          -1          -1          -1          -1          -1
          -1
Number of contracted shells                I               55
Number of primitive shells                 I              110
Pure/Cartesian d shells                    I                0
Pure/Cartesian f shells                    I                0
Highest angular momentum                   I                2
Largest degree of contraction              I                5
Shell types                                I   N=          55
           0           0           0           0           0           1
           1           1          -2          -2           0           0
           0           0           0           1           1           1
          -2          -2           0           0           0           1
           1           0           0           0           1           1
           0           0           0           1           1           0
           0           0           0           0           1           1
           1          -2          -2           0           0           0
           0           0           1           1           1          -2
          -2
Number of primitives per shell             I   N=          55
           5           2           1           1           1           4
           1           1           2           2           5           2
           1           1           1           4           1           1
           2           2           4           1           1           2
           2           4           1           1           2           2
           4           1           1           2           2           5
           2           1           1           1           4           1
           1           2           2           5           2           1
           1           1           4           1           1           2
           2
Shell to atom map                          I   N=          55
           1           1           1           1           1           1
           1           1           1           1           2           2
           2           2           2           2           2           2
           2           2           3           3           3           3
           3           4           4           4           4           4
           5           5           5           5           5           6
           6           6           6           6           6           6
           6           6           6           7           7           7
           7           7           7           7           7           7
           7
Primitive exponents                        R   N=         110
  5.24063530E+03  7.82204800E+02  1.78350830E+02  5.08159420E+01  1.68235620E+01
  6.17577600E+00  2.41804900E+00  5.11900000E-01  1.56590000E-01  4.79000000E-02
  1.88418000E+01  4.15924000E+00  1.20671000E+00  3.85540000E-01  1.21940000E-01
  3.85680000E-02  1.20670000E+00  3.85500000E-01  1.21900000E-01  3.86000000E-02
  5.24063530E+03  7.82204800E+02  1.78350830E+02  5.08159420E+01  1.68235620E+01
  6.17577600E+00  2.41804900E+00  5.11900000E-01  1.56590000E-01  4.79000000E-02
  1.88418000E+01  4.15924000E+00  1.20671000E+00  3.85540000E-01  1.21940000E-01
  3.85680000E-02  1.20670000E+00  3.85500000E-01  1.21900000E-01  3.86000000E-02
  3.38650140E+01  5.09478800E+00  1.15878600E+00  3.25840000E-01  1.02741000E-01
  3.24000000E-02  1.15880000E+00  3.25800000E-01  1.02700000E-01  3.24000000E-02
  3.38650140E+01  5.09478800E+00  1.15878600E+00  3.25840000E-01  1.02741000E-01
  3.24000000E-02  1.15880000E+00  3.25800000E-01  1.02700000E-01  3.24000000E-02
  3.38650140E+01  5.09478800E+00  1.15878600E+00  3.25840000E-01  1.02741000E-01
  3.24000000E-02  1.15880000E+00  3.25800000E-01  1.02700000E-01  3.24000000E-02
  1.06622850E+04  1.59970970E+03  3.64725260E+02  1.03651790E+02  3.39058050E+01
  1.22874690E+01  4.75680500E+00  1.00427100E+00  3.00686000E-01  9.00300000E-02
  3.48564630E+01  7.84313100E+00  2.30624900E+00  7.23164000E-01  2.14882000E-01
  6.38500000E-02  2.30620000E+00  7.23200000E-01  2.14900000E-01  6.39000000E-02
  1.06622850E+04  1.59970970E+03  3.64725260E+02  1.03651790E+02  3.39058050E+01
  1.22874690E+01  4.75680500E+00  1.00427100E+00  3.00686000E-01  9.00300000E-02
  3.48564630E+01  7.84313100E+00  2.30624900E+00  7.23164000E-01  2.14882000E-01
  6.38500000E-02  2.30620000E+00  7.23200000E-01  2.14900000E-01  6.39000000E-02
Contraction coefficients                   R   N=         110
  2.06539993E-03  1.59324554E-02  8.01119476E-02  2.87877514E-01  7.03009673E-01
  6.94067370E-01  3.40077856E-01  1.00000000E+00  1.00000000E+00  1.00000000E+00
  1.80615059E-02  1.12214925E-01  3.75541979E-01  6.49536597E-01  1.00000000E+00
  1.00000000E+00  2.67978866E-01  8.19993920E-01  4.83796365E-01  6.39336711E-01
  2.06539993E-03  1.59324554E-02  8.01119476E-02  2.87877514E-01  7.03009673E-01
  6.94067370E-01  3.40077856E-01  1.00000000E+00  1.00000000E+00  1.00000000E+00
  1.80615059E-02  1.12214925E-01  3.75541979E-01  6.49536597E-01  1.00000000E+00
  1.00000000E+00  2.67978866E-01  8.19993920E-01  4.83796365E-01  6.39336711E-01
  8.76044950E-03  6.54232910E-02  2.92851374E-01  7.27211150E-01  1.00000000E+00
  1.00000000E+00  1.86447366E-01  8.73088966E-01  9.76214574E-01  3.48056130E-02
  8.76044950E-03  6.54232910E-02  2.92851374E-01  7.27211150E-01  1.00000000E+00
  1.00000000E+00  1.86447366E-01  8.73088966E-01  9.76214574E-01  3.48056130E-02
  8.76044950E-03  6.54232910E-02  2.92851374E-01  7.27211150E-01  1.00000000E+00
  1.00000000E+00  1.86447366E-01  8.73088966E-01  9.76214574E-01  3.48056130E-02
  1.90604745E-03  1.46782352E-02  7.43263084E-02  2.75759025E-01  7.19364732E-01
  6.69996511E-01  3.66229217E-01  1.00000000E+00  1.00000000E+00  1.00000000E+00
  1.99439284E-02  1.25155543E-01  3.92261182E-01  6.27670401E-01  1.00000000E+00
  1.00000000E+00  2.83613619E-01  8.10264660E-01  6.73833443E-01  4.58004278E-01
  1.90604745E-03  1.46782352E-02  7.43263084E-02  2.75759025E-01  7.19364732E-01
  6.69996511E-01  3.66229217E-01  1.00000000E+00  1.00000000E+00  1.00000000E+00
  1.99439284E-02  1.25155543E-01  3.92261182E-01  6.27670401E-01  1.00000000E+00
  1.00000000E+00  2.83613619E-01  8.10264660E-01  6.73833443E-01  4.58004278E-01
Coordinates of each shell                  R   N=         165
 -2.54428286E+00 -1.13586773E-01  2.85538053E-04 -2.54428286E+00 -1.13586773E-01
  2.85538053E-04 -2.54428286E+00 -1.13586773E-01  2.85538053E-04 -2.54428286E+00
 -1.13586773E-01  2.85538053E-04 -2.54428286E+00 -1.13586773E-01  2.85538053E-04
 -2.54428286E+00 -1.13586773E-01  2.85538053E-04 -2.54428286E+00 -1.13586773E-01
  2.85538053E-04 -2.54428286E+00 -1.13586773E-01  2.85538053E-04 -2.54428286E+00
 -1.13586773E-01  2.85538053E-04 -2.54428286E+00 -1.13586773E-01  2.85538053E-04
  3.81933111E-01  3.90875389E-03 -2.34836320E-03  3.81933111E-01  3.90875389E-03
 -2.34836320E-03  3.81933111E-01  3.90875389E-03 -2.34836320E-03  3.81933111E-01
  3.90875389E-03 -2.34836320E-03  3.81933111E-01  3.90875389E-03 -2.34836320E-03
  3.81933111E-01  3.90875389E-03 -2.34836320E-03  3.81933111E-01  3.90875389E-03
 -2.34836320E-03  3.81933111E-01  3.90875389E-03 -2.34836320E-03  3.81933111E-01
  3.90875389E-03 -2.34836320E-03  3.81933111E-01  3.90875389E-03 -2.34836320E-03
 -3.21788690E+00 -2.06804530E+00  1.16054731E-03 -3.21788690E+00 -2.06804530E+00
  1.16054731E-03 -3.21788690E+00 -2.06804530E+00  1.16054731E-03 -3.21788690E+00
 -2.06804530E+00  1.16054731E-03 -3.21788690E+00 -2.06804530E+00  1.16054731E-03
 -3.27268314E+00  8.76401845E-01 -1.66675025E+00 -3.27268314E+00  8.76401845E-01
 -1.66675025E+00 -3.27268314E+00  8.76401845E-01 -1.66675025E+00 -3.27268314E+00
  8.76401845E-01 -1.66675025E+00 -3.27268314E+00  8.76401845E-01 -1.66675025E+00
 -3.26976620E+00  8.76884631E-01  1.66831300E+00 -3.26976620E+00  8.76884631E-01
  1.66831300E+00 -3.26976620E+00  8.76884631E-01  1.66831300E+00 -3.26976620E+00
  8.76884631E-01  1.66831300E+00 -3.26976620E+00  8.76884631E-01  1.66831300E+00
  1.53794963E+00 -2.09888477E+00  6.06601768E-04  1.53794963E+00 -2.09888477E+00
  6.06601768E-04  1.53794963E+00 -2.09888477E+00  6.06601768E-04  1.53794963E+00
 -2.09888477E+00  6.06601768E-04  1.53794963E+00 -2.09888477E+00  6.06601768E-04
  1.53794963E+00 -2.09888477E+00  6.06601768E-04  1.53794963E+00 -2.09888477E+00
  6.06601768E-04  1.53794963E+00 -2.09888477E+00  6.06601768E-04  1.53794963E+00
 -2.09888477E+00  6.06601768E-04  1.53794963E+00 -2.09888477E+00  6.06601768E-04
  1.30385471E+00  2.22048813E+00  6.00104543E-04  1.30385471E+00  2.22048813E+00
  6.00104543E-04  1.30385471E+00  2.22048813E+00  6.00104543E-04  1.30385471E+00
  2.22048813E+00  6.00104543E-04  1.30385471E+00  2.22048813E+00  6.00104543E-04
  1.30385471E+00  2.22048813E+00  6.00104543E-04  1.30385471E+00  2.22048813E+00
  6.00104543E-04  1.30385471E+00  2.22048813E+00  6.00104543E-04  1.30385471E+00
  2.22048813E+00  6.00104543E-04  1.30385471E+00  2.22048813E+00  6.00104543E-04
Constraint Structure                       R   N=          21
 -2.54428286E+00 -1.13586773E-01  2.85538053E-04  3.81933111E-01  3.90875389E-03
 -2.34836320E-03 -3.21788690E+00 -2.06804530E+00  1.16054731E-03 -3.27268314E+00
  8.76401845E-01 -1.66675025E+00 -3.26976620E+00  8.76884631E-01  1.66831300E+00
  1.53794963E+00 -2.09888477E+00  6.06601768E-04  1.30385471E+00  2.22048813E+00
  6.00104543E-04
Num ILSW                                   I              100
ILSW                                       I   N=         100
           0           0           0           0           2           0
           0           0           0           0        4336          -1
           0           0           0           0           0           0
           0           0           0           0           0           0
           1           0           0           0           0           0
           0           0      100000           0          -1           0
           0           0           0           0           0           0
           0           0           0           1           0           0
           0           0           1           0           0           0
           0           0           4          41           0           0
           0           0          55           0           0           0
           0           0           0           7           0           0
           0           0           0           0           0           0
           0           0           0           0           0           0
           0           0           0           0           0           0
           0           0           0           0           0           0
           0           0           0           0
Num RLSW                                   I               41
RLSW                                       R   N=          41
  1.00000000E+00  1.00000000E+00  1.00000000E+00  1.00000000E+00  5.40000000E-01
  0.00000000E+00  0.00000000E+00  1.00000000E+00  0.00000000E+00  0.00000000E+00
  0.00000000E+00  0.00000000E+00  1.00000000E+00  0.00000000E+00  0.00000000E+00
  0.00000000E+00  0.00000000E+00  1.00000000E+00  0.00000000E+00  0.00000000E+00
  0.00000000E+00  0.00000000E+00  1.00000000E+00  0.00000000E+00  0.00000000E+00
  0.00000000E+00  0.00000000E+00  1.00000000E+00  0.00000000E+00  0.00000000E+00
  0.00000000E+00  0.00000000E+00  1.00000000E+00  0.00000000E+00  0.00000000E+00
  0.00000000E+00  0.00000000E+00  0.00000000E+00  1.00000000E+00  1.00000000E+00
  0.00000000E+00
MxBond                                     I                4
NBond                                      I   N=           7
           4           3           1           1           1           1
           1
IBond                                      I   N=          28
           2           3           4           5           1           6
           7           0           1           0           0           0
           1           0           0           0           1           0
           0           0           2           0           0           0
           2           0           0           0
RBond                                      R   N=          28
  1.00000000E+00  1.00000000E+00  1.00000000E+00  1.00000000E+00  1.00000000E+00
  2.00000000E+00  2.00000000E+00  0.00000000E+00  1.00000000E+00  0.00000000E+00
  0.00000000E+00  0.00000000E+00  1.00000000E+00  0.00000000E+00  0.00000000E+00
  0.00000000E+00  1.00000000E+00  0.00000000E+00  0.00000000E+00  0.00000000E+00
  2.00000000E+00  0.00000000E+00  0.00000000E+00  0.00000000E+00  2.00000000E+00
  0.00000000E+00  0.00000000E+00  0.00000000E+00
Virial Ratio                               R      2.005986681039930E+00
SCF Energy                                 R     -2.284983030852974E+02
Total Energy                               R     -2.284983030852974E+02
RMS Density                                R      1.708222731123142E-09
External E-field                           R   N=          35
  0.00000000E+00  0.00000000E+00  8.00000000E-04  0.00000000E+00  0.00000000E+00
  0.00000000E+00  0.00000000E+00  0.00000000E+00  0.00000000E+00  0.00000000E+00
  0.00000000E+00  0.00000000E+00  0.00000000E+00  0.00000000E+00  0.00000000E+00
  0.00000000E+00  0.00000000E+00  0.00000000E+00  0.00000000E+00  0.00000000E+00
  0.00000000E+00  0.00000000E+00  0.00000000E+00  0.00000000E+00  0.00000000E+00
  0.00000000E+00  0.00000000E+00  0.00000000E+00  0.00000000E+00  0.00000000E+00
  0.00000000E+00  0.00000000E+00  0.00000000E+00  0.00000000E+00  0.00000000E+00
IOpCl                                      I                0
IROHF                                      I                0
Alpha Orbital Energies                     R   N=         123
 -1.93761610E+01 -1.93747482E+01 -1.04406087E+01 -1.03675853E+01 -9.34056376E-01
 -8.44335797E-01 -6.27082482E-01 -3.88534754E-01 -3.18088617E-01 -3.12118097E-01
 -3.03332669E-01 -2.59464434E-01 -2.31404743E-01 -1.13942871E-01 -1.08355670E-01
 -1.07829507E-01  1.09154341E-01  1.21292733E-01  1.29336220E-01  1.55050403E-01
  1.85284097E-01  1.91940452E-01  1.92666699E-01  1.96820256E-01  1.97788222E-01
  2.38001225E-01  2.48225792E-01  2.56364829E-01  2.66210963E-01  2.84063440E-01
  3.05309802E-01  3.28659670E-01  3.35544590E-01  3.43025474E-01  3.56536471E-01
  3.63926334E-01  3.77247019E-01  3.92434127E-01  3.95638059E-01  3.96680237E-01
  4.30700747E-01  4.44168190E-01  4.62831298E-01  4.73287351E-01  4.74188587E-01
  4.83666036E-01  4.85404267E-01  4.91808269E-01  4.92401997E-01  5.10670911E-01
  5.10963811E-01  5.31411567E-01  5.56735957E-01  5.59645603E-01  5.89862762E-01
  5.99875075E-01  6.19799383E-01  6.39479293E-01  6.81886764E-01  7.19597637E-01
  7.42553439E-01  7.59525196E-01  7.70614785E-01  8.04446222E-01  8.11983385E-01
  8.25101935E-01  8.36534677E-01  8.49218947E-01  9.31177093E-01  9.37689823E-01
  9.46508398E-01  9.79148086E-01  9.87933376E-01  1.00792540E+00  1.01883372E+00
  1.02616462E+00  1.06537462E+00  1.07805344E+00  1.08446363E+00  1.13271405E+00
  1.16933239E+00  1.19239093E+00  1.23165973E+00  1.27314916E+00  1.29598327E+00
  1.39373596E+00  1.39513984E+00  1.44777572E+00  1.45226235E+00  1.53472561E+00
  1.56820638E+00  1.60781533E+00  1.62957652E+00  1.68020012E+00  1.68661611E+00
  1.74500197E+00  1.77506099E+00  1.80045112E+00  1.83590734E+00  1.99944584E+00
  2.04556547E+00  2.19876967E+00  2.20980689E+00  2.28385849E+00  2.32553852E+00
  2.45241914E+00  2.47976830E+00  2.54419030E+00  2.60449225E+00  2.63430258E+00
  2.68407701E+00  2.73718335E+00  2.83224347E+00  2.87690675E+00  3.15626280E+00
  3.18739089E+00  3.33412880E+00  3.40728011E+00  3.54055487E+00  2.19438470E+01
  2.21964387E+01  4.30539171E+01  4.31054066E+01
Alpha MO coefficients                      R   N=       15129
 -9.08986669E-06  4.85437700E-05 -9.69692858E-05  8.50109149E-04  4.93401818E-04
 -2.32155183E-04 -2.75790872E-05  5.72828622E-07 -1.45748774E-03  1.57811337E-03
  2.36788311E-06 -3.11751038E-03 -4.65956079E-03  1.91517566E-05 -6.80476910E-05
  3.97476691E-07 -7.92895207E-07 -2.97043457E-04  2.64924810E-04  1.41552328E-03
  9.35647096E-06  6.69905766E-06 -5.55071200E-05 -2.34469772E-03 -1.97503976E-05
  4.52298993E-05  3.28835680E-04  1.33664984E-02  2.45719586E-03  3.81988360E-04
 -3.76919541E-04  2.35686298E-06  6.45136199E-03 -8.09975582E-03  1.29712360E-05
  2.20310431E-03  5.75190310E-03 -1.95387378E-05 -1.66374750E-04  9.99523724E-07
  1.05648977E-06  4.88250409E-04  6.16185726E-04 -3.08517685E-04  1.21479430E-05
 -1.10596712E-06 -1.91039380E-03 -2.92170432E-03 -4.69868471E-06  3.16328423E-03
  4.23354182E-05 -4.51767348E-05 -1.61292454E-04  2.37304484E-07 -2.63303767E-04
  7.12990316E-04  3.18170049E-06  2.30543479E-05 -8.63269617E-04 -1.18877737E-03
  2.51855565E-04 -8.91442382E-05  1.62156696E-05  7.86801626E-04  1.06395182E-04
 -2.84673528E-04  2.47742523E-05 -8.79173191E-04 -1.18649313E-03  2.50139143E-04
 -8.92379373E-05 -1.60822375E-05  7.80810503E-04  1.05973173E-04  2.88134033E-04
  4.19519317E-01  6.62345278E-01  1.89353594E-02 -1.24303198E-02 -8.86712281E-03
 -7.15760910E-04  1.33475951E-03 -2.66719842E-06  2.43323197E-03 -4.98478981E-03
  7.52343693E-06  1.04849786E-04 -2.19211941E-03  2.85651129E-06  7.56002416E-06
  1.51713381E-07 -1.35463689E-07 -4.60222366E-05 -5.67932011E-05  4.28353030E-04
 -2.19537018E-06  2.57787375E-06  9.96627422E-04  1.08392313E-03 -3.77676991E-03
 -5.95256434E-03 -1.47337249E-04 -3.94558917E-04  2.34649328E-03  7.70731577E-05
  8.66398450E-05  6.35394124E-07 -1.07534633E-03  1.46615964E-03 -4.38566059E-06
 -1.02125708E-03 -6.72296460E-04 -3.67223933E-06  1.23489423E-05  4.50109004E-07
 -4.34223755E-07  1.26420691E-04  7.27393446E-05  1.86787724E-04  1.05464661E-06
  3.02603135E-06  1.30483313E-03  3.12236156E-04 -1.11222203E-05  5.88871807E-05
 -2.34990101E-04  1.08512087E-03  2.07284971E-03 -2.86909770E-04 -4.59464344E-05
  5.66361784E-07  8.42047307E-04 -2.64118392E-03 -1.40742756E-05 -1.03892309E-03
  1.30928077E-03  2.90373108E-05  5.48932786E-05  5.57198407E-07  1.10865184E-06
 -2.41138151E-04 -1.96661227E-04  1.22046813E-03  1.28278917E-05 -3.18537842E-06
  4.40640273E-04 -2.76276157E-04 -2.09443860E-05  5.01481961E-05  3.96436246E-04
  1.01939928E-02 -1.37528065E-03  3.70662202E-04  4.18288080E-04  2.33942966E-06
  5.63671439E-03  9.65754912E-03  1.00101831E-05  2.01729769E-03 -1.02373910E-03
 -2.80561943E-05 -1.02326084E-04  7.38365570E-07 -1.00810333E-06  6.26570248E-04
 -5.15820685E-04 -4.35464633E-04  1.55719053E-05  6.74007947E-06 -1.60532170E-03
  5.72576112E-04 -1.00647678E-04 -3.92481205E-04  9.78266689E-04  1.06577008E-04
  5.35840617E-05  1.30806656E-06 -1.31405161E-04 -4.48894192E-05 -1.63678380E-06
  7.82002954E-07  1.17667252E-03 -8.46672642E-04 -1.56680201E-04  7.37674095E-05
  3.73967265E-05  3.72741690E-04  3.22648719E-04  5.81162466E-04  1.42956610E-06
  1.23413794E-03 -8.44709874E-04 -1.57238767E-04  7.23496340E-05 -3.66487742E-05
  3.73264336E-04  3.14820175E-04 -6.00492826E-04  3.77655062E-03  5.97353751E-03
  1.74496995E-04 -4.08439562E-04  3.12695829E-03  8.22011167E-05 -5.84838359E-05
  5.60979908E-07 -1.18315747E-03 -1.36664266E-03 -4.10588204E-06 -1.56111130E-03
  5.31781169E-04 -3.21832717E-06  2.55133834E-07  2.92416057E-07  4.87756769E-07
  1.31209402E-04 -3.08905307E-05  2.12172919E-04  2.01504118E-06 -3.06119891E-06
  1.25279949E-03 -2.60225274E-04  4.19518466E-01  6.62360618E-01  1.88026245E-02
 -1.17557263E-02 -8.29977696E-03 -6.01146517E-04 -1.40225663E-03 -2.60034581E-06
  1.93012713E-03  4.87002268E-03  6.03959273E-06  4.15178592E-04  1.97819181E-03
 -4.36420485E-07  7.24029643E-06  2.50153848E-07  1.40068978E-07 -4.30194204E-05
  5.81740673E-05  4.09496553E-04 -2.15549642E-06 -2.13947489E-06  9.59606071E-04
 -8.56057979E-04  9.38502182E-04  1.36873889E-03  1.03249802E-04  1.05391585E-03
  1.32483918E-02 -3.29193421E-05 -3.46690811E-05 -4.67138739E-08  7.65083623E-03
 -2.35871867E-03  3.50187730E-06  5.90807691E-03 -5.85555262E-04 -3.56561894E-05
  2.97581479E-04  1.42294195E-06  1.67079282E-07 -4.72436946E-04  1.49825429E-05
 -2.52034728E-03 -1.53265184E-05 -3.33125351E-06  1.79380843E-03 -4.38096693E-04
  4.53381942E-01  6.29363863E-01  2.09210134E-02 -8.65072791E-03 -2.57906768E-02
  6.29113477E-04  5.77176655E-05  1.90527626E-06  8.44100014E-03  1.02699364E-03
 -1.62710514E-05  1.83841021E-03  1.00338188E-03  2.11463299E-05 -4.62286787E-04
  7.50183472E-07  7.02247601E-08 -6.71707819E-04 -1.36494016E-04  2.38973407E-03
 -9.96674617E-06  1.34277173E-06 -4.79713197E-04 -8.78861531E-04 -2.08509425E-04
 -9.16673606E-04  1.41580111E-03 -1.32578171E-04  2.28724615E-05 -7.48330136E-07
  1.75221943E-04 -5.92973554E-05 -2.20488214E-06 -1.64558402E-04  6.65615131E-03
  1.36850814E-03 -6.04357805E-05  1.12977517E-05  2.35739938E-04  1.73541276E-03
 -1.36021999E-03  1.14452939E-03 -1.64938092E-04  6.61889347E-03  1.38115716E-03
 -6.02563351E-05  1.18551683E-05 -2.35716549E-04  1.72991439E-03 -1.35251118E-03
 -1.13447028E-03 -7.25614419E-05 -1.91299975E-04  7.85805049E-04 -2.13865031E-03
  2.19914587E-03  1.47219423E-04 -4.94202494E-05 -4.54750237E-07  4.13761984E-04
 -2.24493558E-03  8.84346607E-06  3.94052204E-04 -8.88120525E-04  4.25931716E-07
  2.65487826E-04 -8.48983299E-07  1.05491418E-06  1.53697220E-04  3.95129031E-04
  8.30482701E-04 -1.43605647E-06  6.79392238E-06  9.07429927E-04  1.02732257E-03
 -7.25150009E-05 -1.83877107E-04  7.26772646E-04 -1.84731650E-03  1.43190741E-03
  1.04060128E-04  4.76121545E-05 -5.40252509E-07  4.53250307E-04  2.26682132E-03
  8.56505586E-06  1.68367186E-03  9.62379848E-04  2.64992333E-07  2.56523956E-04
 -5.17283822E-07 -1.03778808E-06  2.64715112E-04 -3.44740221E-04  8.47776309E-04
 -2.07888750E-06 -7.11701106E-06  8.01098879E-04 -1.00584937E-03  4.53288338E-01
  6.29192373E-01  2.25487466E-02 -2.27519308E-02 -1.31323006E-02 -7.48313300E-04
  1.33428586E-04  2.47941867E-07 -2.98534991E-03 -9.43009591E-04  2.25540392E-06
 -2.93900901E-03 -2.26668448E-03 -1.24096808E-05  2.14216559E-04  5.47051029E-07
 -1.03563384E-07 -3.13008890E-04 -4.03382026E-05  1.04555343E-03 -3.36868320E-06
  2.90229726E-07 -1.10964767E-03 -1.11758282E-03 -1.00781433E-03 -1.33544562E-03
 -1.69872035E-04  3.80756109E-03  6.94292722E-03 -2.75851567E-04 -3.78047386E-05
  1.17939302E-07 -4.53013064E-03  3.38104267E-04  8.10610660E-06 -3.63074871E-04
  3.23565394E-03  1.45799426E-05  8.37863805E-05  6.80947950E-07  5.29723030E-09
 -5.44104879E-04 -2.21640089E-05 -1.41506672E-04 -6.25221834E-06  9.79404726E-07
 -1.71621312E-04 -1.56302978E-03 -3.36038455E-04  4.95044577E-03  1.48257258E-03
 -3.51995467E-04 -1.13655649E-03  3.06989064E-07  8.33898959E-04  2.55470885E-03
 -1.07857417E-06 -3.92943704E-04  4.41294809E-03  4.09910636E-04 -3.88321166E-04
  6.38488337E-04 -1.02794183E-03  1.17888044E-03 -1.17204234E-03  2.09363839E-03
 -3.92414392E-04  4.40036195E-03  4.11840616E-04 -3.86200444E-04  6.38940485E-04
  1.02830343E-03  1.17464408E-03 -1.16995686E-03 -2.09017034E-03  1.39532569E-06
  2.54579269E-05 -1.18601797E-04 -2.88582048E-04  1.01068066E-03  1.09022001E-04
 -1.04305518E-04  2.23210694E-07  2.46577897E-04  4.46375285E-04 -7.34910672E-07
 -5.94498766E-04 -2.07030617E-04 -1.63534779E-06 -3.05694060E-05 -3.25093021E-07
 -5.04546381E-08 -4.50440515E-05  3.32764869E-05 -2.30932643E-04  4.90774679E-07
 -1.23160903E-06  6.97655569E-05  1.56768788E-04  1.16803578E-06  3.17131937E-05
 -1.65067535E-04 -1.59367746E-04  1.71178086E-03  9.03475756E-05  1.31996885E-04
  3.10351840E-07  4.85169004E-04 -5.21201443E-04 -1.44839979E-06  2.15098032E-04
 -1.21796593E-03 -6.52623665E-07 -2.69148827E-05 -1.64046911E-07 -2.49431104E-08
 -6.12414419E-06 -5.27851432E-05 -3.03036435E-04 -8.45416701E-07  1.38004196E-06
 -8.39831155E-05 -5.29585189E-05 -1.11568435E-02 -2.52053766E-02  5.11719275E-02
 -5.26046607E-02 -2.34453860E-01  3.72600416E-02  2.26780712E-03 -1.65400174E-05
  5.30708642E-04  1.84503826E-02  1.28651799E-05 -2.11598293E-02  9.68386850E-03
 -1.78599527E-04 -3.78711169E-03 -1.04674669E-05 -1.10576471E-06  9.12143556E-03
  4.91661951E-04 -2.85241070E-02 -1.07376237E-04 -1.26040946E-05 -1.23747768E-02
  1.65483205E-02 -6.26574706E-02 -1.39308692E-01  2.87346736E-01  2.57180200E-01
  2.71511328E-01  9.42879494E-02  5.07940070E-03  2.92999324E-04 -4.78316226E-02
 -1.20493380E-02  2.09814844E-06 -1.28601480E-01 -3.10566403E-02  2.76793688E-04
 -1.87954626E-02  2.39378485E-05  1.41157745E-06 -2.51941926E-02 -2.66185368E-03
  1.86934773E-02 -1.94160878E-04 -3.72435063E-05  7.03539296E-02  1.77975697E-02
  1.62633512E-02  2.66398717E-02 -2.94479788E-02  1.74473936E-03  5.02699692E-03
 -4.48027300E-06  1.15076067E-02  1.18112061E-02 -2.22717501E-05  1.65916116E-02
  1.38333754E-02  1.23121101E-03  5.98162095E-04 -2.24364419E-03  3.06877807E-03
 -5.19835288E-03 -4.44832043E-03 -4.10111195E-03  1.65960117E-02  1.37328917E-02
  1.18016730E-03  6.00956123E-04 -2.23785368E-03 -3.07625401E-03 -5.15845249E-03
 -4.45892592E-03  4.16556912E-03 -5.72128886E-02 -1.43815304E-01  2.94149907E-01
  2.62804787E-01 -5.59077204E-02 -5.12486381E-02  1.04610068E-01 -1.15446105E-04
  1.01170862E-02 -9.77800308E-03  2.91839287E-05  4.03163299E-02 -5.76257704E-02
  5.16224064E-05 -6.43414932E-03  7.69569479E-06 -2.86952275E-05 -8.33749310E-03
 -1.03331333E-02  1.43248320E-02 -1.38220388E-05  6.64275605E-05  4.07714980E-03
  1.82165460E-02 -5.70517251E-02 -1.43426028E-01  2.93434196E-01  2.61051226E-01
 -4.69369318E-02 -3.96231076E-02 -1.09211620E-01 -1.14715302E-04  6.46182367E-03
  1.09886582E-02  3.40661401E-05  2.67138969E-02  6.16607987E-02  7.05571856E-05
 -6.51178854E-03  4.03326047E-06  2.91371409E-05 -1.03625210E-02  8.26252378E-03
  1.44698831E-02 -5.75005388E-07 -6.78132927E-05  9.07957801E-03 -1.63595089E-02
  4.45020621E-04  9.71602369E-04 -1.87461833E-03  8.26397963E-04  5.41518809E-03
 -5.34225319E-04 -1.77590433E-02  6.50911510E-07  5.85901932E-03  1.51143600E-02
  5.80394284E-05 -6.11990712E-03  1.02689403E-01  1.14599796E-04  4.22693637E-05
 -6.66367160E-07  8.53807797E-06  4.95291155E-04 -5.85400594E-03  6.15057395E-03
  1.08636316E-04 -2.11846504E-04 -2.42503133E-03  2.84854626E-02  1.01511971E-04
  2.53752275E-04 -4.84561376E-04 -9.10869546E-03  1.39821665E-02  1.70002475E-02