polar                                                                   
SP        RM062X                                                      Gen                 
Number of atoms                            I                7
Info1-9                                    I   N=           9
          98          97           0           0           0         110
           1          18        -502
Charge                                     I               -1
Multiplicity                               I                1
Number of electrons                        I               32
Number of alpha electrons                  I               16
Number of beta electrons                   I               16
Number of basis functions                  I              123
Number of independent functions            I              123
Number of point charges in /Mol/           I                0
Number of translation vectors              I                0
Atomic numbers                             I   N=           7
           6           6           1           1           1           8
           8
Nuclear charges                            R   N=           7
  6.00000000E+00  6.00000000E+00  1.00000000E+00  1.00000000E+00  1.00000000E+00
  8.00000000E+00  8.00000000E+00
Current cartesian coordinates              R   N=          21
 -2.54428286E+00 -1.13586773E-01  2.85538053E-04  3.81933111E-01  3.90875389E-03
 -2.34836320E-03 -3.21788690E+00 -2.06804530E+00  1.16054731E-03 -3.27268314E+00
  8.76401845E-01 -1.66675025E+00 -3.26976620E+00  8.76884631E-01  1.66831300E+00
  1.53794963E+00 -2.09888477E+00  6.06601768E-04  1.30385471E+00  2.22048813E+00
  6.00104543E-04
Force Field                                I                0
Int Atom Types                             I   N=           7
           0           0           0           0           0           0
           0
MM charges                                 R   N=           7
  0.00000000E+00  0.00000000E+00  0.00000000E+00  0.00000000E+00  0.00000000E+00
  0.00000000E+00  0.00000000E+00
Integer atomic weights                     I   N=           7
          12          12           1           1           1          16
          16
Real atomic weights                        R   N=           7
  1.20000000E+01  1.20000000E+01  1.00782504E+00  1.00782504E+00  1.00782504E+00
  1.59949146E+01  1.59949146E+01
Atom fragment info                         I   N=           7
           0           0           0           0           0           0
           0
Atom residue num                           I   N=           7
           0           0           0           0           0           0
           0
Nuclear spins                              I   N=           7
           0           0           1           1           1           0
           0
Nuclear ZEff                               R   N=           7
 -3.60000000E+00 -3.60000000E+00 -1.00000000E+00 -1.00000000E+00 -1.00000000E+00
 -5.60000000E+00 -5.60000000E+00
Nuclear ZNuc                               R   N=           7
  6.00000000E+00  6.00000000E+00  1.00000000E+00  1.00000000E+00  1.00000000E+00
  8.00000000E+00  8.00000000E+00
Nuclear QMom                               R   N=           7
  0.00000000E+00  0.00000000E+00  0.00000000E+00  0.00000000E+00  0.00000000E+00
  0.00000000E+00  0.00000000E+00
Nuclear GFac                               R   N=           7
  0.00000000E+00  0.00000000E+00  2.79284600E+00  2.79284600E+00  2.79284600E+00
  0.00000000E+00  0.00000000E+00
MicOpt                                     I   N=           7
          -1          -1          -1          -1          -1          -1
          -1
Number of contracted shells                I               55
Number of primitive shells                 I              110
Pure/Cartesian d shells                    I                0
Pure/Cartesian f shells                    I                0
Highest angular momentum                   I                2
Largest degree of contraction              I                5
Shell types                                I   N=          55
           0           0           0           0           0           1
           1           1          -2          -2           0           0
           0           0           0           1           1           1
          -2          -2           0           0           0           1
           1           0           0           0           1           1
           0           0           0           1           1           0
           0           0           0           0           1           1
           1          -2          -2           0           0           0
           0           0           1           1           1          -2
          -2
Number of primitives per shell             I   N=          55
           5           2           1           1           1           4
           1           1           2           2           5           2
           1           1           1           4           1           1
           2           2           4           1           1           2
           2           4           1           1           2           2
           4           1           1           2           2           5
           2           1           1           1           4           1
           1           2           2           5           2           1
           1           1           4           1           1           2
           2
Shell to atom map                          I   N=          55
           1           1           1           1           1           1
           1           1           1           1           2           2
           2           2           2           2           2           2
           2           2           3           3           3           3
           3           4           4           4           4           4
           5           5           5           5           5           6
           6           6           6           6           6           6
           6           6           6           7           7           7
           7           7           7           7           7           7
           7
Primitive exponents                        R   N=         110
  5.24063530E+03  7.82204800E+02  1.78350830E+02  5.08159420E+01  1.68235620E+01
  6.17577600E+00  2.41804900E+00  5.11900000E-01  1.56590000E-01  4.79000000E-02
  1.88418000E+01  4.15924000E+00  1.20671000E+00  3.85540000E-01  1.21940000E-01
  3.85680000E-02  1.20670000E+00  3.85500000E-01  1.21900000E-01  3.86000000E-02
  5.24063530E+03  7.82204800E+02  1.78350830E+02  5.08159420E+01  1.68235620E+01
  6.17577600E+00  2.41804900E+00  5.11900000E-01  1.56590000E-01  4.79000000E-02
  1.88418000E+01  4.15924000E+00  1.20671000E+00  3.85540000E-01  1.21940000E-01
  3.85680000E-02  1.20670000E+00  3.85500000E-01  1.21900000E-01  3.86000000E-02
  3.38650140E+01  5.09478800E+00  1.15878600E+00  3.25840000E-01  1.02741000E-01
  3.24000000E-02  1.15880000E+00  3.25800000E-01  1.02700000E-01  3.24000000E-02
  3.38650140E+01  5.09478800E+00  1.15878600E+00  3.25840000E-01  1.02741000E-01
  3.24000000E-02  1.15880000E+00  3.25800000E-01  1.02700000E-01  3.24000000E-02
  3.38650140E+01  5.09478800E+00  1.15878600E+00  3.25840000E-01  1.02741000E-01
  3.24000000E-02  1.15880000E+00  3.25800000E-01  1.02700000E-01  3.24000000E-02
  1.06622850E+04  1.59970970E+03  3.64725260E+02  1.03651790E+02  3.39058050E+01
  1.22874690E+01  4.75680500E+00  1.00427100E+00  3.00686000E-01  9.00300000E-02
  3.48564630E+01  7.84313100E+00  2.30624900E+00  7.23164000E-01  2.14882000E-01
  6.38500000E-02  2.30620000E+00  7.23200000E-01  2.14900000E-01  6.39000000E-02
  1.06622850E+04  1.59970970E+03  3.64725260E+02  1.03651790E+02  3.39058050E+01
  1.22874690E+01  4.75680500E+00  1.00427100E+00  3.00686000E-01  9.00300000E-02
  3.48564630E+01  7.84313100E+00  2.30624900E+00  7.23164000E-01  2.14882000E-01
  6.38500000E-02  2.30620000E+00  7.23200000E-01  2.14900000E-01  6.39000000E-02
Contraction coefficients                   R   N=         110
  2.06539993E-03  1.59324554E-02  8.01119476E-02  2.87877514E-01  7.03009673E-01
  6.94067370E-01  3.40077856E-01  1.00000000E+00  1.00000000E+00  1.00000000E+00
  1.80615059E-02  1.12214925E-01  3.75541979E-01  6.49536597E-01  1.00000000E+00
  1.00000000E+00  2.67978866E-01  8.19993920E-01  4.83796365E-01  6.39336711E-01
  2.06539993E-03  1.59324554E-02  8.01119476E-02  2.87877514E-01  7.03009673E-01
  6.94067370E-01  3.40077856E-01  1.00000000E+00  1.00000000E+00  1.00000000E+00
  1.80615059E-02  1.12214925E-01  3.75541979E-01  6.49536597E-01  1.00000000E+00
  1.00000000E+00  2.67978866E-01  8.19993920E-01  4.83796365E-01  6.39336711E-01
  8.76044950E-03  6.54232910E-02  2.92851374E-01  7.27211150E-01  1.00000000E+00
  1.00000000E+00  1.86447366E-01  8.73088966E-01  9.76214574E-01  3.48056130E-02
  8.76044950E-03  6.54232910E-02  2.92851374E-01  7.27211150E-01  1.00000000E+00
  1.00000000E+00  1.86447366E-01  8.73088966E-01  9.76214574E-01  3.48056130E-02
  8.76044950E-03  6.54232910E-02  2.92851374E-01  7.27211150E-01  1.00000000E+00
  1.00000000E+00  1.86447366E-01  8.73088966E-01  9.76214574E-01  3.48056130E-02
  1.90604745E-03  1.46782352E-02  7.43263084E-02  2.75759025E-01  7.19364732E-01
  6.69996511E-01  3.66229217E-01  1.00000000E+00  1.00000000E+00  1.00000000E+00
  1.99439284E-02  1.25155543E-01  3.92261182E-01  6.27670401E-01  1.00000000E+00
  1.00000000E+00  2.83613619E-01  8.10264660E-01  6.73833443E-01  4.58004278E-01
  1.90604745E-03  1.46782352E-02  7.43263084E-02  2.75759025E-01  7.19364732E-01
  6.69996511E-01  3.66229217E-01  1.00000000E+00  1.00000000E+00  1.00000000E+00
  1.99439284E-02  1.25155543E-01  3.92261182E-01  6.27670401E-01  1.00000000E+00
  1.00000000E+00  2.83613619E-01  8.10264660E-01  6.73833443E-01  4.58004278E-01
Coordinates of each shell                  R   N=         165
 -2.54428286E+00 -1.13586773E-01  2.85538053E-04 -2.54428286E+00 -1.13586773E-01
  2.85538053E-04 -2.54428286E+00 -1.13586773E-01  2.85538053E-04 -2.54428286E+00
 -1.13586773E-01  2.85538053E-04 -2.54428286E+00 -1.13586773E-01  2.85538053E-04
 -2.54428286E+00 -1.13586773E-01  2.85538053E-04 -2.54428286E+00 -1.13586773E-01
  2.85538053E-04 -2.54428286E+00 -1.13586773E-01  2.85538053E-04 -2.54428286E+00
 -1.13586773E-01  2.85538053E-04 -2.54428286E+00 -1.13586773E-01  2.85538053E-04
  3.81933111E-01  3.90875389E-03 -2.34836320E-03  3.81933111E-01  3.90875389E-03
 -2.34836320E-03  3.81933111E-01  3.90875389E-03 -2.34836320E-03  3.81933111E-01
  3.90875389E-03 -2.34836320E-03  3.81933111E-01  3.90875389E-03 -2.34836320E-03
  3.81933111E-01  3.90875389E-03 -2.34836320E-03  3.81933111E-01  3.90875389E-03
 -2.34836320E-03  3.81933111E-01  3.90875389E-03 -2.34836320E-03  3.81933111E-01
  3.90875389E-03 -2.34836320E-03  3.81933111E-01  3.90875389E-03 -2.34836320E-03
 -3.21788690E+00 -2.06804530E+00  1.16054731E-03 -3.21788690E+00 -2.06804530E+00
  1.16054731E-03 -3.21788690E+00 -2.06804530E+00  1.16054731E-03 -3.21788690E+00
 -2.06804530E+00  1.16054731E-03 -3.21788690E+00 -2.06804530E+00  1.16054731E-03
 -3.27268314E+00  8.76401845E-01 -1.66675025E+00 -3.27268314E+00  8.76401845E-01
 -1.66675025E+00 -3.27268314E+00  8.76401845E-01 -1.66675025E+00 -3.27268314E+00
  8.76401845E-01 -1.66675025E+00 -3.27268314E+00  8.76401845E-01 -1.66675025E+00
 -3.26976620E+00  8.76884631E-01  1.66831300E+00 -3.26976620E+00  8.76884631E-01
  1.66831300E+00 -3.26976620E+00  8.76884631E-01  1.66831300E+00 -3.26976620E+00
  8.76884631E-01  1.66831300E+00 -3.26976620E+00  8.76884631E-01  1.66831300E+00
  1.53794963E+00 -2.09888477E+00  6.06601768E-04  1.53794963E+00 -2.09888477E+00
  6.06601768E-04  1.53794963E+00 -2.09888477E+00  6.06601768E-04  1.53794963E+00
 -2.09888477E+00  6.06601768E-04  1.53794963E+00 -2.09888477E+00  6.06601768E-04
  1.53794963E+00 -2.09888477E+00  6.06601768E-04  1.53794963E+00 -2.09888477E+00
  6.06601768E-04  1.53794963E+00 -2.09888477E+00  6.06601768E-04  1.53794963E+00
 -2.09888477E+00  6.06601768E-04  1.53794963E+00 -2.09888477E+00  6.06601768E-04
  1.30385471E+00  2.22048813E+00  6.00104543E-04  1.30385471E+00  2.22048813E+00
  6.00104543E-04  1.30385471E+00  2.22048813E+00  6.00104543E-04  1.30385471E+00
  2.22048813E+00  6.00104543E-04  1.30385471E+00  2.22048813E+00  6.00104543E-04
  1.30385471E+00  2.22048813E+00  6.00104543E-04  1.30385471E+00  2.22048813E+00
  6.00104543E-04  1.30385471E+00  2.22048813E+00  6.00104543E-04  1.30385471E+00
  2.22048813E+00  6.00104543E-04  1.30385471E+00  2.22048813E+00  6.00104543E-04
Constraint Structure                       R   N=          21
 -2.54428286E+00 -1.13586773E-01  2.85538053E-04  3.81933111E-01  3.90875389E-03
 -2.34836320E-03 -3.21788690E+00 -2.06804530E+00  1.16054731E-03 -3.27268314E+00
  8.76401845E-01 -1.66675025E+00 -3.26976620E+00  8.76884631E-01  1.66831300E+00
  1.53794963E+00 -2.09888477E+00  6.06601768E-04  1.30385471E+00  2.22048813E+00
  6.00104543E-04
Num ILSW                                   I              100
ILSW                                       I   N=         100
           0           0           0           0           2           0
           0           0           0           0        4336          -1
           0           0           0           0           0           0
           0           0           0           0           0           0
           1           0           0           0           0           0
           0           0      100000           0          -1           0
           0           0           0           0           0           0
           0           0           0           1           0           0
           0           0           1           0           0           0
           0           0           4          41           0           0
           0           0          55           0           0           0
           0           0           0           7           0           0
           0           0           0           0           0           0
           0           0           0           0           0           0
           0           0           0           0           0           0
           0           0           0           0           0           0
           0           0           0           0
Num RLSW                                   I               41
RLSW                                       R   N=          41
  1.00000000E+00  1.00000000E+00  1.00000000E+00  1.00000000E+00  5.40000000E-01
  0.00000000E+00  0.00000000E+00  1.00000000E+00  0.00000000E+00  0.00000000E+00
  0.00000000E+00  0.00000000E+00  1.00000000E+00  0.00000000E+00  0.00000000E+00
  0.00000000E+00  0.00000000E+00  1.00000000E+00  0.00000000E+00  0.00000000E+00
  0.00000000E+00  0.00000000E+00  1.00000000E+00  0.00000000E+00  0.00000000E+00
  0.00000000E+00  0.00000000E+00  1.00000000E+00  0.00000000E+00  0.00000000E+00
  0.00000000E+00  0.00000000E+00  1.00000000E+00  0.00000000E+00  0.00000000E+00
  0.00000000E+00  0.00000000E+00  0.00000000E+00  1.00000000E+00  1.00000000E+00
  0.00000000E+00
MxBond                                     I                4
NBond                                      I   N=           7
           4           3           1           1           1           1
           1
IBond                                      I   N=          28
           2           3           4           5           1           6
           7           0           1           0           0           0
           1           0           0           0           1           0
           0           0           2           0           0           0
           2           0           0           0
RBond                                      R   N=          28
  1.00000000E+00  1.00000000E+00  1.00000000E+00  1.00000000E+00  1.00000000E+00
  2.00000000E+00  2.00000000E+00  0.00000000E+00  1.00000000E+00  0.00000000E+00
  0.00000000E+00  0.00000000E+00  1.00000000E+00  0.00000000E+00  0.00000000E+00
  0.00000000E+00  1.00000000E+00  0.00000000E+00  0.00000000E+00  0.00000000E+00
  2.00000000E+00  0.00000000E+00  0.00000000E+00  0.00000000E+00  2.00000000E+00
  0.00000000E+00  0.00000000E+00  0.00000000E+00
Virial Ratio                               R      2.005986455359971E+00
SCF Energy                                 R     -2.284982388280454E+02
Total Energy                               R     -2.284982388280454E+02
RMS Density                                R      2.946747173290524E-09
External E-field                           R   N=          35
  0.00000000E+00  0.00000000E+00  0.00000000E+00  8.00000000E-04  0.00000000E+00
  0.00000000E+00  0.00000000E+00  0.00000000E+00  0.00000000E+00  0.00000000E+00
  0.00000000E+00  0.00000000E+00  0.00000000E+00  0.00000000E+00  0.00000000E+00
  0.00000000E+00  0.00000000E+00  0.00000000E+00  0.00000000E+00  0.00000000E+00
  0.00000000E+00  0.00000000E+00  0.00000000E+00  0.00000000E+00  0.00000000E+00
  0.00000000E+00  0.00000000E+00  0.00000000E+00  0.00000000E+00  0.00000000E+00
  0.00000000E+00  0.00000000E+00  0.00000000E+00  0.00000000E+00  0.00000000E+00
IOpCl                                      I                0
IROHF                                      I                0
Alpha Orbital Energies                     R   N=         123
 -1.93765829E+01 -1.93742549E+01 -1.04406019E+01 -1.03676380E+01 -9.34031596E-01
 -8.44302913E-01 -6.27122922E-01 -3.88538801E-01 -3.18013847E-01 -3.12223410E-01
 -3.03362895E-01 -2.59502341E-01 -2.31366168E-01 -1.13890974E-01 -1.08459769E-01
 -1.07673179E-01  1.08829940E-01  1.22843375E-01  1.26930339E-01  1.54974528E-01
  1.85628742E-01  1.91425405E-01  1.92165916E-01  1.97475725E-01  1.98075837E-01
  2.37743187E-01  2.47743576E-01  2.57643883E-01  2.65084736E-01  2.83988619E-01
  3.05210292E-01  3.28663995E-01  3.35719273E-01  3.43130307E-01  3.56244506E-01
  3.64218444E-01  3.77064318E-01  3.91608110E-01  3.95842558E-01  3.97239705E-01
  4.30464591E-01  4.44463365E-01  4.63715293E-01  4.72385571E-01  4.74510444E-01
  4.83331533E-01  4.85244297E-01  4.91823494E-01  4.92807975E-01  5.10382987E-01
  5.11294911E-01  5.31333862E-01  5.56530401E-01  5.59720227E-01  5.89497766E-01
  5.99928498E-01  6.19733453E-01  6.39116089E-01  6.81598424E-01  7.19698101E-01
  7.42442525E-01  7.59735357E-01  7.70888070E-01  8.04027559E-01  8.11973889E-01
  8.24874408E-01  8.36647558E-01  8.49386688E-01  9.30711082E-01  9.37922332E-01
  9.46257971E-01  9.79515349E-01  9.87489241E-01  1.00834908E+00  1.01893861E+00
  1.02596603E+00  1.06489383E+00  1.07815374E+00  1.08527677E+00  1.13250118E+00
  1.16960583E+00  1.19243021E+00  1.23139023E+00  1.27316865E+00  1.29592832E+00
  1.39411699E+00  1.39517019E+00  1.44723712E+00  1.45232111E+00  1.53452674E+00
  1.56801561E+00  1.60804768E+00  1.62967766E+00  1.68025671E+00  1.68647542E+00
  1.74471554E+00  1.77519693E+00  1.80073935E+00  1.83565278E+00  1.99952478E+00
  2.04552578E+00  2.19872639E+00  2.20980447E+00  2.28385259E+00  2.32553510E+00
  2.45206599E+00  2.47995415E+00  2.54428634E+00  2.60447109E+00  2.63409649E+00
  2.68405079E+00  2.73742569E+00  2.83229939E+00  2.87687928E+00  3.15632692E+00
  3.18738807E+00  3.33412989E+00  3.40733774E+00  3.54059328E+00  2.19438405E+01
  2.21963989E+01  4.30544176E+01  4.31049755E+01
Alpha MO coefficients                      R   N=       15129
 -9.12216215E-06  4.87111649E-05 -9.75037977E-05  8.53541574E-04  5.14135835E-04
 -2.33005898E-04 -2.77539049E-05  5.84122040E-07 -1.45933369E-03  1.56914385E-03
  2.13641487E-06 -3.12261879E-03 -4.65368744E-03  2.26337593E-05 -6.77785480E-05
  3.49338419E-07 -8.21897041E-07 -2.97837244E-04  2.64016536E-04  1.42109546E-03
  1.06149278E-05  7.69264345E-06 -5.47618083E-05 -2.34531864E-03 -1.97956415E-05
  4.52873102E-05  3.30057364E-04  1.34000799E-02  2.43775621E-03  3.83305377E-04
 -3.75667180E-04  2.41832644E-06  6.46341350E-03 -8.06510513E-03  1.45235402E-05
  2.21619863E-03  5.74618176E-03 -2.28401370E-05 -1.67338585E-04  1.00047115E-06
  1.21634718E-06  4.89817081E-04  6.13297466E-04 -3.09722146E-04  1.39112653E-05
 -2.06134015E-06 -1.91903582E-03 -2.92043431E-03 -4.89490751E-06  3.16030824E-03
  4.59136942E-05 -4.47811342E-05 -1.61019701E-04  2.85665802E-07 -2.63403435E-04
  7.12133891E-04  3.72856759E-06  2.29574584E-05 -8.61795727E-04 -1.19226439E-03
  2.51398486E-04 -8.88552802E-05  1.63090924E-05  7.88445667E-04  1.08431218E-04
 -2.83239939E-04  2.47616858E-05 -8.77384655E-04 -1.19060870E-03  2.49528465E-04
 -8.89512414E-05 -1.61154553E-05  7.82189278E-04  1.07340588E-04  2.86437886E-04
  4.19530082E-01  6.62361904E-01  1.89367194E-02 -1.24336627E-02 -8.84401874E-03
 -7.15248734E-04  1.33050290E-03 -1.65622990E-07  2.42933866E-03 -4.98510586E-03
  5.61793966E-06  9.76839625E-05 -2.18508530E-03  2.44613051E-06  7.82872017E-06
  1.12660445E-07 -3.32277272E-08 -4.53048726E-05 -5.67053133E-05  4.28001809E-04
 -2.02992953E-06  1.97567688E-06  9.99398039E-04  1.08242293E-03 -2.29210842E-03
 -3.60851013E-03 -8.07430383E-05 -4.35624433E-04  2.31908533E-03  7.49244814E-05
  8.16153736E-05  6.52771931E-07 -1.06709223E-03  1.48277309E-03 -4.89048373E-06
 -1.01892021E-03 -6.65398936E-04 -3.49614028E-06  1.23994836E-05  4.78124175E-07
 -4.26780887E-07  1.26125205E-04  7.28470658E-05  1.88688585E-04  1.02823016E-06
  3.44367475E-06  1.30808065E-03  3.08582840E-04 -1.10981606E-05  5.87651377E-05
 -2.34972861E-04  1.08226752E-03  2.05816954E-03 -2.86237369E-04 -4.58903872E-05
  5.61982581E-07  8.51131393E-04 -2.64827993E-03 -1.58564972E-05 -1.02688516E-03
  1.32310806E-03  3.32372631E-05  5.50541713E-05  5.37185818E-07  1.17293277E-06
 -2.40128400E-04 -1.97757637E-04  1.21423486E-03  1.45252955E-05 -3.64113586E-06
  4.41606860E-04 -2.68545293E-04 -2.09056894E-05  5.01152176E-05  3.95422010E-04
  1.01501687E-02 -1.37035648E-03  3.69269500E-04  4.19384110E-04  2.41236178E-06
  5.62081870E-03  9.68907252E-03  1.14313890E-05  2.00419964E-03 -1.04336532E-03
 -3.20763139E-05 -1.01135416E-04  7.33874286E-07 -1.19351788E-06  6.25770339E-04
 -5.18940054E-04 -4.34494607E-04  1.75673432E-05  7.71766564E-06 -1.59576030E-03
  5.80587097E-04 -1.00696133E-04 -4.02724776E-04  9.78082781E-04  1.06745098E-04
  5.42279128E-05  1.47995780E-06 -1.30919139E-04 -4.67999454E-05 -1.82896446E-06
  7.00450845E-07  1.17866543E-03 -8.41908426E-04 -1.57457046E-04  7.41523393E-05
  3.73687267E-05  3.69812668E-04  3.22560915E-04  5.81319051E-04  1.37245208E-06
  1.24451197E-03 -8.39775552E-04 -1.58102042E-04  7.25625347E-05 -3.66233749E-05
  3.70796638E-04  3.13618561E-04 -6.03308425E-04  2.29188640E-03  3.62953321E-03
  1.07443681E-04 -3.65051674E-04  3.15734138E-03  8.47808116E-05 -6.33147591E-05
  6.23873442E-07 -1.19336138E-03 -1.34967886E-03 -4.71718486E-06 -1.56306760E-03
  5.39347981E-04 -3.21441997E-06  2.07622408E-07  3.16744147E-07  4.91447721E-07
  1.31538283E-04 -3.07704238E-05  2.10139019E-04  2.05226026E-06 -3.56696957E-06
  1.24967969E-03 -2.64624109E-04  4.19529189E-01  6.62377908E-01  1.88021331E-02
 -1.17522704E-02 -8.32050399E-03 -6.01651342E-04 -1.40667468E-03 -5.19623041E-08
  1.93384098E-03  4.86937822E-03  4.10729934E-06  4.20830178E-04  1.98574248E-03
 -8.41048085E-07  6.90318756E-06  2.18819713E-07  3.30980958E-08 -4.37534310E-05
  5.80967522E-05  4.10013205E-04 -2.04727434E-06 -1.53185170E-06  9.56643533E-04
 -8.57685398E-04  9.39262149E-04  1.36979571E-03  1.03442582E-04  1.05428371E-03
  1.32519004E-02 -3.30289086E-05 -3.47580984E-05  1.72156351E-08  7.64892469E-03
 -2.35590867E-03  2.63393561E-06  5.90642149E-03 -5.75317965E-04 -3.73062407E-05
  2.97596787E-04  1.46148765E-06  1.50832619E-07 -4.72584244E-04  1.47686996E-05
 -2.51979008E-03 -1.53803603E-05 -3.55737015E-06  1.79300866E-03 -4.34284461E-04
  4.53381953E-01  6.29363892E-01  2.09207276E-02 -8.65325380E-03 -2.57919745E-02
  6.29100923E-04  3.84754505E-05  2.01550458E-06  8.44136605E-03  1.00151735E-03
 -1.59476353E-05  1.84027236E-03  1.00059313E-03  2.24772857E-05 -4.62186542E-04
  7.46612221E-07  5.68936637E-08 -6.70979860E-04 -1.40571921E-04  2.38957181E-03
 -1.01396024E-05  1.36950494E-06 -4.82150863E-04 -8.66500714E-04 -2.08729263E-04
 -9.20505146E-04  1.41302908E-03 -1.32725510E-04  2.28395683E-05 -7.65035155E-07
  1.75427815E-04 -6.12712228E-05 -2.07814961E-06 -1.64372078E-04  6.65516562E-03
  1.36835975E-03 -6.02260766E-05  1.14853726E-05  2.35704954E-04  1.73522229E-03
 -1.36092729E-03  1.14481611E-03 -1.64768715E-04  6.62038747E-03  1.38292044E-03
 -6.00089675E-05  1.20205371E-05 -2.35710203E-04  1.72995797E-03 -1.35349224E-03
 -1.13512411E-03 -7.25388251E-05 -1.91387722E-04  7.88020666E-04 -2.14840792E-03
  2.16445425E-03  1.47463119E-04 -5.03346522E-05 -4.72816215E-07  4.23047210E-04
 -2.25792610E-03  8.97315085E-06  4.05368186E-04 -9.01889786E-04  8.70947705E-08
  2.66273231E-04 -8.73761235E-07  1.10742971E-06  1.54714333E-04  3.96612073E-04
  8.34797149E-04 -1.43114713E-06  6.80599387E-06  9.10189604E-04  1.03254099E-03
 -7.25373042E-05 -1.83767461E-04  7.24295412E-04 -1.83650399E-03  1.46957776E-03
  1.03887247E-04  4.66347600E-05 -5.57336193E-07  4.44913504E-04  2.25095440E-03
  8.63110021E-06  1.67322729E-03  9.45331411E-04 -9.35305532E-08  2.55656917E-04
 -5.34734337E-07 -1.08348862E-06  2.63282296E-04 -3.43432011E-04  8.42899546E-04
 -2.06192578E-06 -7.10063618E-06  7.96790556E-04 -1.00074897E-03  4.53288340E-01
  6.29192344E-01  2.25488421E-02 -2.27523588E-02 -1.31361972E-02 -7.48734992E-04
  1.21868002E-04  1.24471986E-05 -2.98551335E-03 -9.35128040E-04 -1.71559292E-06
 -2.94091899E-03 -2.26187240E-03 -1.86723072E-05  2.11803194E-04 -2.27024821E-06
  2.99479941E-06 -3.14655628E-04 -3.75182226E-05  1.04666069E-03 -2.16306426E-06
 -1.02627066E-06 -1.10971047E-03 -1.11849644E-03 -1.00857024E-03 -1.33651898E-03
 -1.69811634E-04  3.81085031E-03  6.94896332E-03 -2.75830390E-04 -3.78250487E-05
  8.05978200E-08 -4.53043212E-03  3.34316542E-04  1.01320832E-05 -3.62981388E-04
  3.23469789E-03  1.48845857E-05  8.37967820E-05  6.03287951E-07 -3.01082154E-07
 -5.43923175E-04 -2.21808214E-05 -1.42351362E-04 -7.72919724E-06  1.30268636E-06
 -1.72035122E-04 -1.56154895E-03 -3.41792604E-04  4.95607993E-03  1.48880555E-03
 -3.53520887E-04 -1.14199290E-03  1.32350371E-07  8.33509095E-04  2.55736373E-03
  5.46075238E-07 -3.84975545E-04  4.41019121E-03  3.98707611E-04 -3.85899770E-04
  6.34513217E-04 -1.02170427E-03  1.17906550E-03 -1.17145005E-03  2.09223723E-03
 -3.95102465E-04  4.39813686E-03  4.15751324E-04 -3.87000761E-04  6.40116567E-04
  1.03022072E-03  1.17407595E-03 -1.17151191E-03 -2.08828544E-03  1.40051437E-06
  2.54312039E-05 -1.18296409E-04 -2.90165318E-04  1.00849443E-03  1.09099706E-04
 -1.04281003E-04  2.02534945E-07  2.46972906E-04  4.45726208E-04 -1.22969281E-06
 -5.95017391E-04 -2.07673555E-04 -1.55334334E-06 -3.05529454E-05 -3.24853663E-07
 -1.24226352E-07 -4.50947067E-05  3.32514045E-05 -2.31099177E-04  9.97248700E-07
 -1.33858146E-06  7.04426050E-05  1.56915529E-04  1.16358276E-06  3.16969479E-05
 -1.65065039E-04 -1.58550038E-04  1.71072655E-03  9.01137094E-05  1.31902295E-04
  3.19050936E-07  4.85685351E-04 -5.20745171E-04 -1.67746714E-06  2.15132946E-04
 -1.21782127E-03  7.30618829E-08 -2.69517159E-05 -1.14049265E-07 -7.02537654E-08
 -6.04024141E-06 -5.27507125E-05 -3.02358069E-04 -1.20276768E-06  1.41280560E-06
 -8.43821957E-05 -5.36753358E-05 -1.11581926E-02 -2.52084616E-02  5.11777056E-02
 -5.26072708E-02 -2.34477653E-01  3.72619495E-02  2.16778289E-03  7.16774389E-06
  5.73223543E-04  1.84342334E-02  4.67767966E-05 -2.11878444E-02  1.01627005E-02
 -2.13749513E-04 -3.78816291E-03 -8.71505779E-06  1.06023219E-06  9.12322623E-03
  4.57040159E-04 -2.85152450E-02 -1.55227839E-04 -7.03677069E-06 -1.23944034E-02
  1.67457257E-02 -6.26576394E-02 -1.39308922E-01  2.87347796E-01  2.57133992E-01
  2.71634403E-01  9.43649697E-02  3.48440936E-03  3.55630086E-04 -4.78241777E-02
 -1.21665397E-02  8.15498402E-05 -1.28630412E-01 -3.12387670E-02  3.61987954E-04
 -1.87938897E-02  2.90057252E-05  1.75377892E-06 -2.51718756E-02 -2.86635468E-03
  1.86793524E-02 -2.53516354E-04 -2.53975632E-05  7.03189114E-02  1.83988539E-02
  1.63128393E-02  2.64102271E-02 -2.95832755E-02  1.74699998E-03  5.03237674E-03
 -2.67546016E-06  1.15148673E-02  1.17305996E-02 -1.88686100E-05  1.65550338E-02
  1.40378052E-02  1.38930291E-03  5.88865685E-04 -2.24203073E-03  3.06928184E-03
 -5.20534148E-03 -4.49471002E-03 -4.01580807E-03  1.65926336E-02  1.37090678E-02
  1.13025509E-03  5.93903037E-04 -2.23638839E-03 -3.07076267E-03 -5.19228031E-03
 -4.46633243E-03  4.14667387E-03 -5.75857792E-02 -1.44753822E-01  2.96056726E-01
  2.64632403E-01 -5.62577256E-02 -5.15952841E-02  1.05013370E-01 -3.90725819E-05
  1.01925194E-02 -1.00418728E-02  1.21069207E-04  4.06551925E-02 -5.80968187E-02
  1.05810811E-04 -6.47344408E-03  6.66287634E-06 -2.61379739E-05 -8.35427166E-03
 -1.03952739E-02  1.44803216E-02 -1.32325162E-05  7.94660914E-05  4.20470024E-03
  1.83537236E-02 -5.66753178E-02 -1.42478451E-01  2.91506795E-01  2.59222678E-01
 -4.66234199E-02 -3.93316387E-02 -1.08766326E-01 -3.77063033E-05  6.39961334E-03
  1.07125923E-02  1.20007977E-04  2.64115941E-02  6.11687150E-02  1.01299044E-04
 -6.47243728E-03  2.68077034E-06  2.57280328E-05 -1.03318373E-02  8.20577071E-03
  1.43161983E-02  3.73381847E-06 -7.55900867E-05  8.92059641E-03 -1.62408686E-02
 -5.36984236E-04 -1.17863222E-03  2.28965153E-03 -1.04203686E-03 -6.66559232E-03
  7.94831290E-04  1.77786920E-02  8.62791286E-07 -5.78560405E-03 -1.50406419E-02
 -8.99856766E-05  6.02832640E-03 -1.02573307E-01 -1.44400972E-04 -6.64234158E-05
  1.82560550E-06 -6.90059249E-06 -4.35309619E-04  5.85848390E-03 -6.30998429E-03
 -1.30317103E-04  2.50694866E-04  2.37690025E-03 -2.83822543E-02 -5.04199795E-04
 -1.15170937E-03  2.35189111E-03  1.07874375E-02 -1.24929792E-02 -1.64317641E-02